<UPF version="2.0.1">
  <PP_INFO>
    Generated using FHI98PP, converted with fhi2upf.x v.5.0.1
    Author: Abinit web site
    Generation date: 10-Jul-2012, PG
    Pseudopotential type: SL
    Element: Sn
    Functional: SLA-PW

    Suggested minimum cutoff for wavefunctions:   0. Ry
    Suggested minimum cutoff for charge density:   0. Ry
    The Pseudo was generated with a Non-Relativistic Calculation
    L component and cutoff radius for Local Potential:  0   0.0000

    Valence configuration: 
    nl pn  l   occ       Rcut    Rcut US       E pseu
    5s  5  0  2.00      0.000      0.000     0.000000
    5p  5  1  2.00      0.000      0.000     0.000000
    5d  5  2  0.00      0.000      0.000     0.000000
    4f  4  3  0.00      0.000      0.000     0.000000

    Generation configuration: not available.
    Comment:
    tin, fhi98PP : Trouiller-Martins-type, LDA Ceperley/Alder Perdew/Wang (1992), l=
  </PP_INFO>
  <!--                               -->
  <!-- END OF HUMAN READABLE SECTION -->
  <!--                               -->
  <PP_HEADER generated="Generated using FHI98PP, converted with fhi2upf.x v.5.0.1"
             author="Abinit web site"
             date="10-Jul-2012, PG"
             comment="tin, fhi98PP : Trouiller-Martins-type, LDA Ceperley/Alder Perdew/Wang (1992), l="
             element="Sn"
             pseudo_type="SL"
             relativistic="no"
             is_ultrasoft="F"
             is_paw="F"
             is_coulomb="F"
             has_so="F"
             has_wfc="F"
             has_gipaw="F"
             paw_as_gipaw="F"
             core_correction="F"
             functional="SLA-PW"
             z_valence="4.000000000000000E+000"
             total_psenergy="0.000000000000000E+000"
             wfc_cutoff="0.000000000000000E+000"
             rho_cutoff="0.000000000000000E+000"
             l_max="3"
             l_max_rho="0"
             l_local="0"
             mesh_size="547"
             number_of_wfc="4"
             number_of_proj="3"/>
  <PP_MESH dx="2.439988682353512E-002" mesh="547" xmin="-5.075173815233827E+000" rmax="7.633575085607301E+001"
zmesh="5.000000000000000E+001">
    <PP_R type="real" size="547" columns="4">
 1.250000000000000E-004  1.280875000000000E-004  1.312512612500000E-004  1.344931674028800E-004 
 1.378151486377300E-004  1.412191828090800E-004  1.447072966244600E-004  1.482815668510900E-004 
 1.519441215523100E-004  1.556971413546500E-004  1.595428607461100E-004  1.634835694065400E-004 
 1.675216135708800E-004  1.716593974260800E-004  1.758993845425100E-004  1.802440993407100E-004 
 1.846961285944200E-004  1.892581229707000E-004  1.939327986080800E-004  1.987229387337000E-004 
 2.036313953204200E-004  2.086610907848400E-004  2.138150197272200E-004  2.190962507144800E-004 
 2.245079281071300E-004  2.300532739313800E-004  2.357355897974800E-004  2.415582588654800E-004 
 2.475247478594600E-004  2.536386091315900E-004  2.599034827771400E-004  2.663230988017300E-004 
 2.729012793421300E-004  2.796419409418800E-004  2.865490968831500E-004  2.936268595761600E-004 
 3.008794430076900E-004  3.083111652499800E-004  3.159264510316600E-004  3.237298343721400E-004 
 3.317259612811300E-004  3.399195925247800E-004  3.483156064601400E-004  3.569190019397000E-004 
 3.657349012876100E-004  3.747685533494200E-004  3.840253366171500E-004  3.935107624315900E-004 
 4.032304782636500E-004  4.131902710767600E-004  4.233960707723600E-004  4.338539537204400E-004 
 4.445701463773300E-004  4.555510289928500E-004  4.668031394089800E-004  4.783331769523800E-004 
 4.901480064231000E-004  5.022546621817500E-004  5.146603523376400E-004  5.273724630403800E-004 
 5.403985628774800E-004  5.537464073805500E-004  5.674239436428500E-004  5.814393150508300E-004 
 5.958008661325900E-004  6.105171475260600E-004  6.255969210699500E-004  6.410491650203800E-004 
 6.568830793963900E-004  6.731080914574800E-004  6.897338613164800E-004  7.067702876909900E-004 
 7.242275137969600E-004  7.421159333877500E-004  7.604461969424200E-004  7.792292180069000E-004 
 7.984761796916700E-004  8.181985413300600E-004  8.384080453009100E-004  8.591167240198400E-004 
 8.803369071031300E-004  9.020812287085800E-004  9.243626350576800E-004  9.471943921436000E-004 
 9.705900936295500E-004  9.945636689422000E-004  1.019129391565100E-003  1.044301887536700E-003 
 1.070096144158900E-003  1.096527518919600E-003  1.123611748636900E-003  1.151364958828300E-003 
 1.179803673311300E-003  1.208944824042100E-003  1.238805761195900E-003  1.269404263497500E-003 
 1.300758548805900E-003  1.332887284961400E-003  1.365809600899900E-003  1.399545098042200E-003 
 1.434113861963800E-003  1.469536474354300E-003  1.505834025270900E-003  1.543028125695000E-003 
 1.581140920399700E-003  1.620195101133600E-003  1.660213920131600E-003  1.701221203958800E-003 
 1.743241367696600E-003  1.786299429478700E-003  1.830421025386800E-003  1.875632424713900E-003 
 1.921960545604300E-003  1.969432971080800E-003  2.018077965466500E-003  2.067924491213500E-003 
 2.119002226146400E-003  2.171341581132300E-003  2.224973718186200E-003  2.279930569025400E-003 
 2.336244854080400E-003  2.393950101976100E-003  2.453080669495000E-003  2.513671762031500E-003 
 2.575759454553700E-003  2.639380713081100E-003  2.704573416694200E-003  2.771376380086600E-003 
 2.839829376674700E-003  2.909973162278600E-003  2.981849499386900E-003  3.055501182021700E-003 
 3.130972061217700E-003  3.208307071129700E-003  3.287552255786600E-003  3.368754796504600E-003 
 3.451963039978200E-003  3.537226527065700E-003  3.624596022284200E-003  3.714123544034600E-003 
 3.805862395572300E-003  3.899867196742900E-003  3.996193916502500E-003  4.094899906240100E-003 
 4.196043933924200E-003  4.299686219092100E-003  4.405888468703700E-003  4.514713913880700E-003 
 4.626227347553600E-003  4.740495163038100E-003  4.857585393565200E-003  4.977567752786200E-003 
 5.100513676280100E-003  5.226496364084200E-003  5.355590824277000E-003  5.487873917636700E-003 
 5.623424403402300E-003  5.762322986166400E-003  5.904652363924700E-003  6.050497277313600E-003 
 6.199944560063200E-003  6.353083190696800E-003  6.510004345507000E-003  6.670801452841000E-003 
 6.835570248726200E-003  7.004408833869700E-003  7.177417732066300E-003  7.354699950048400E-003 
 7.536361038814600E-003  7.722509156473300E-003  7.913255132638200E-003  8.108712534414300E-003 
 8.308997734014400E-003  8.514229978044499E-003  8.724531458502200E-003  8.940027385527200E-003 
 9.160846061949701E-003  9.387118959679900E-003  9.618980797983999E-003  9.856569623694200E-003 
 1.010002689339900E-002  1.034949755766600E-002  1.060513014734100E-002  1.086707686198000E-002 
 1.113549366047100E-002  1.141054035388500E-002  1.169238070062600E-002  1.198118250393100E-002 
 1.227711771177800E-002  1.258036251925900E-002  1.289109747348500E-002  1.320950758108000E-002 
 1.353578241833200E-002  1.387011624406500E-002  1.421270811529400E-002  1.456376200574100E-002 
 1.492348692728300E-002  1.529209705438700E-002  1.566981185163100E-002  1.605685620436600E-002 
 1.645346055261400E-002  1.685986102826300E-002  1.727629959566100E-002  1.770302419567400E-002 
 1.814028889330700E-002  1.858835402897200E-002  1.904748637348800E-002  1.951795928691300E-002 
 2.000005288129900E-002  2.049405418746800E-002  2.100025732589800E-002  2.151896368184800E-002 
 2.205048208478900E-002  2.259512899228400E-002  2.315322867839300E-002  2.372511342674900E-002 
 2.431112372839000E-002  2.491160848448100E-002  2.552692521404800E-002  2.615744026683500E-002 
 2.680352904142600E-002  2.746557620874900E-002  2.814397594110500E-002  2.883913214685000E-002 
 2.955145871087800E-002  3.028137974103600E-002  3.102932982064000E-002  3.179575426721000E-002 
 3.258110939761000E-002  3.338586279973100E-002  3.421049361088400E-002  3.505549280307300E-002 
 3.592136347530900E-002  3.680862115314900E-002  3.771779409563200E-002  3.864942360979400E-002 
 3.960406437295600E-002  4.058228476296800E-002  4.158466719661300E-002  4.261180847636900E-002 
 4.366432014573600E-002  4.474282885333500E-002  4.584797672601300E-002  4.698042175114500E-002 
 4.814083816839800E-002  4.932991687115800E-002  5.054836581787600E-002  5.179691045357700E-002 
 5.307629414178000E-002  5.438727860708200E-002  5.573064438867700E-002  5.710719130507800E-002 
 5.851773893031300E-002  5.996312708189200E-002  6.144421632081400E-002  6.296188846393901E-002 
 6.451704710899800E-002  6.611061817258999E-002  6.774355044145300E-002  6.941681613735699E-002 
 7.113141149594999E-002  7.288835735990000E-002  7.468869978668900E-002  7.653351067142000E-002 
 7.842388838500400E-002  8.036095842811400E-002  8.234587410128801E-002  8.437981719159000E-002 
 8.646399867622299E-002  8.859965944352501E-002  9.078807103177999E-002  9.303053638626500E-002 
 9.532839063500601E-002  9.768300188369100E-002  1.000957720302200E-001  1.025681375993600E-001 
 1.051015705980700E-001  1.076975793918400E-001  1.103577096028200E-001  1.130835450300100E-001 
 1.158767085922500E-001  1.187388632944800E-001  1.216717132178500E-001  1.246770045343300E-001 
 1.277565265463300E-001  1.309121127520300E-001  1.341456419370000E-001  1.374590392928400E-001 
 1.408542775633800E-001  1.443333782191900E-001  1.478984126612100E-001  1.515515034539400E-001 
 1.552948255892500E-001  1.591306077813100E-001  1.630611337935000E-001  1.670887437982000E-001 
 1.712158357700200E-001  1.754448669135400E-001  1.797783551263000E-001  1.842188804979200E-001 
 1.887690868462200E-001  1.934316832913200E-001  1.982094458686200E-001  2.031052191815700E-001 
 2.081219180953600E-001  2.132625294723100E-001  2.185301139502800E-001  2.239278077648500E-001 
 2.294588246166400E-001  2.351264575846700E-001  2.409340810870200E-001  2.468851528898700E-001 
 2.529832161662500E-001  2.592319016055500E-001  2.656349295752100E-001  2.721961123357200E-001 
 2.789193563104100E-001  2.858086644112800E-001  2.928681384222300E-001  3.001019814412600E-001 
 3.075145003828600E-001  3.151101085423200E-001  3.228933282233100E-001  3.308687934304300E-001 
 3.390412526281600E-001  3.474155715680800E-001  3.559967361858100E-001  3.647898555696000E-001 
 3.738001650021700E-001  3.830330290777200E-001  3.924939448959400E-001  4.021885453348700E-001 
 4.121226024046400E-001  4.223020306840400E-001  4.327328908419300E-001  4.434213932457300E-001 
 4.543739016589000E-001  4.655969370298700E-001  4.770971813745100E-001  4.888814817544600E-001 
 5.009568543538000E-001  5.133304886563300E-001  5.260097517261501E-001  5.390021925937800E-001 
 5.523155467508500E-001  5.659577407555900E-001  5.799368969522600E-001  5.942613383069800E-001 
 6.089395933631599E-001  6.239804013192300E-001  6.393927172318100E-001  6.551857173474400E-001 
 6.713688045659200E-001  6.879516140387000E-001  7.049440189054600E-001  7.223561361724200E-001 
 7.401983327358800E-001  7.584812315544600E-001  7.772157179738500E-001  7.964129462078000E-001 
 8.160843459791400E-001  8.362416293248200E-001  8.568967975691399E-001  8.780621484691000E-001 
 8.997502835362901E-001  9.219741155396400E-001  9.447468761934600E-001  9.680821240354400E-001 
 9.919937524991200E-001  1.016495998185800E+000  1.041603449341000E+000  1.067331054539800E+000 
 1.093694131586900E+000  1.120708376637100E+000  1.148389873540000E+000  1.176755103416500E+000 
 1.205820954470900E+000  1.235604732046300E+000  1.266124168927800E+000  1.297397435900300E+000 
 1.329443152567100E+000  1.362280398435500E+000  1.395928724276800E+000  1.430408163766500E+000 
 1.465739245411500E+000  1.501943004773200E+000  1.539040996991100E+000  1.577055309616800E+000 
 1.616008575764300E+000  1.655923987585700E+000  1.696825310079000E+000  1.738736895238000E+000 
 1.781683696550400E+000  1.825691283855200E+000  1.870785858566400E+000  1.916994269273000E+000 
 1.964344027724000E+000  2.012863325208800E+000  2.062581049341400E+000  2.113526801260200E+000 
 2.165730913251300E+000  2.219224466808600E+000  2.274039311138800E+000  2.330208082123900E+000 
 2.387764221752400E+000  2.446741998029700E+000  2.507176525381000E+000  2.569103785557900E+000 
 2.632560649061200E+000  2.697584897093000E+000  2.764215244051200E+000  2.832491360579300E+000 
 2.902453897185600E+000  2.974144508446000E+000  3.047605877804700E+000  3.122881742986400E+000 
 3.200016922038200E+000  3.279057340012500E+000  3.360050056310900E+000  3.443043292701700E+000 
 3.528086462031500E+000  3.615230197643600E+000  3.704526383525400E+000  3.796028185198500E+000 
 3.889790081372900E+000  3.985867896382800E+000  4.084318833423500E+000  4.185201508609000E+000 
 4.288575985871700E+000  4.394503812722700E+000  4.503048056897000E+000  4.614273343902300E+000 
 4.728245895496700E+000  4.845033569115500E+000  4.964705898272600E+000  5.087334133960000E+000 
 5.212991287068800E+000  5.341752171859400E+000  5.473693450504300E+000  5.608893678731800E+000 
 5.747433352596400E+000  5.889394956405600E+000  6.034863011828800E+000  6.183924128221000E+000 
 6.336667054188000E+000  6.493182730426500E+000  6.653564343868000E+000  6.817907383161500E+000 
 6.986309695525600E+000  7.158871545005100E+000  7.335695672166700E+000  7.516887355269200E+000 
 7.702554472944400E+000  7.892807568426100E+000  8.087759915366201E+000  8.287527585275800E+000 
 8.492229516632101E+000  8.701987585692899E+000  8.916926679059500E+000  9.137174768032301E+000 
 9.362862984802700E+000  9.594125700527300E+000  9.831100605330301E+000  1.007392879028200E+001 
 1.032275483140200E+001  1.057772687573800E+001  1.083899672956800E+001  1.110671994878900E+001 
 1.138105593152400E+001  1.166216801303200E+001  1.195022356295400E+001  1.224539408495900E+001 
 1.254785531885800E+001  1.285778734523400E+001  1.317537469266100E+001  1.350080644757000E+001 
 1.383427636682400E+001  1.417598299308500E+001  1.452612977301400E+001  1.488492517840800E+001 
 1.525258283031400E+001  1.562932162622300E+001  1.601536587039100E+001  1.641094540738900E+001 
 1.681629575895200E+001  1.723165826419800E+001  1.765728022332400E+001  1.809341504484000E+001 
 1.854032239644700E+001  1.899826835964000E+001  1.946752558812300E+001  1.994837347014900E+001 
 2.044109829486200E+001  2.094599342274500E+001  2.146335946028700E+001  2.199350443895600E+001 
 2.253674399859800E+001  2.309340157536400E+001  2.366380859427500E+001  2.424830466655400E+001 
 2.484723779181800E+001  2.546096456527600E+001  2.608985039003800E+001  2.673426969467200E+001 
 2.739460615613000E+001  2.807125292818700E+001  2.876461287551300E+001  2.947509881353800E+001 
 3.020313375423200E+001  3.094915115796200E+001  3.171359519156400E+001  3.249692099279500E+001 
 3.329959494131700E+001  3.412209493636800E+001  3.496491068129600E+001  3.582854397512400E+001 
 3.671350901131000E+001  3.762033268388900E+001  3.854955490118100E+001  3.950172890724000E+001 
 4.047742161124900E+001  4.147721392504700E+001  4.250170110899500E+001  4.355149312638800E+001 
 4.462721500660900E+001  4.572950721727300E+001  4.685902604553900E+001  4.801644398886400E+001 
 4.920245015538900E+001  5.041775067422700E+001  5.166306911588100E+001  5.293914692304300E+001 
 5.424674385204200E+001  5.558663842518700E+001  5.695962839429000E+001  5.836653121562800E+001 
 5.980818453665500E+001  6.128544669471000E+001  6.279919722806900E+001  6.435033739960301E+001 
 6.593979073337300E+001  6.756850356448700E+001  6.923744560253000E+001  7.094761050891201E+001 
 7.270001648848201E+001  7.449570689574800E+001  7.633575085607301E+001
    </PP_R>
    <PP_RAB type="real" size="547" columns="4">
 3.049985852941890E-006  3.125320503509555E-006  3.202515919946240E-006  3.281618063169035E-006 
 3.362674029329283E-006  3.445732077853669E-006  3.530841660176550E-006  3.618053449183053E-006 
 3.707419369377827E-006  3.798992627801409E-006  3.892827745708108E-006  3.988980591027125E-006 
 4.087508411625457E-006  4.188469869392588E-006  4.291925075166727E-006  4.397935624523346E-006 
 4.506564634448937E-006  4.617876780919773E-006  4.731938337408582E-006  4.848817214342584E-006 
 4.968582999536787E-006  5.091306999625483E-006  5.217062282516098E-006  5.345923720894188E-006 
 5.477968036800331E-006  5.613273847309395E-006  5.751921711337812E-006  5.893994177607911E-006 
 6.039575833794892E-006  6.188753356889657E-006  6.341615564804826E-006  6.498253469255373E-006 
 6.658760329945915E-006  6.823231710095564E-006  6.991765533335060E-006  7.164462142008343E-006 
 7.341424356915922E-006  7.522757538531746E-006  7.708569649733615E-006  7.898971320081986E-006 
 8.094075911687966E-006  8.293999586706806E-006  8.498861376498414E-006  8.708783252497793E-006 
 8.923890198834474E-006  9.144310286745832E-006  9.370174750828437E-006  9.601618067173811E-006 
 9.838778033432998E-006  1.008179585085874E-005  1.033081620837505E-005  1.058598736872198E-005 
 1.084746125672929E-005  1.111539354977051E-005  1.138994377045000E-005  1.167127538158007E-005 
 1.195955588350501E-005  1.225495691382757E-005  1.255765434959912E-005  1.286782841203423E-005 
 1.318566377381154E-005  1.351134966902459E-005  1.384508000584951E-005  1.418705348199403E-005 
 1.453747370299939E-005  1.489654930346336E-005  1.526449407125881E-005  1.564152707481896E-005 
 1.602787279356715E-005  1.642376125156824E-005  1.682942815448198E-005  1.724511502989751E-005 
 1.767106937113604E-005  1.810754478460323E-005  1.855480114078275E-005  1.901310472896014E-005 
 1.948272841576544E-005  1.996395180763499E-005  2.045706141728351E-005  2.096235083429035E-005 
 2.148012089989732E-005  2.201067988612485E-005  2.255434367931209E-005  2.311143596819098E-005 
 2.368228843660537E-005  2.426724096098953E-005  2.486664181272665E-005  2.548084786549958E-005 
 2.611022480777848E-005  2.675514736053001E-005  2.741599950033475E-005  2.809317468799469E-005 
 2.878707610278673E-005  2.949811688252582E-005  3.022672036952324E-005  3.097332036265196E-005 
 3.173836137560975E-005  3.252229890158717E-005  3.332559968445523E-005  3.414874199666304E-005 
 3.499221592397959E-005  3.585652365730174E-005  3.674217979163828E-005  3.764971163248953E-005 
 3.857965950981283E-005  3.953257709970588E-005  4.050903175406862E-005  4.150960483839288E-005 
 4.253489207790161E-005  4.358550391222564E-005  4.466206585885702E-005  4.576521888557192E-005 
 4.689561979204473E-005  4.805394160091004E-005  4.924087395845262E-005  5.045712354522585E-005 
 5.170341449679113E-005  5.298048883486392E-005  5.428910690908341E-005  5.563004784973779E-005 
 5.700411003162809E-005  5.841211154940721E-005  5.985489070467976E-005  6.133330650508470E-005 
 6.284823917576084E-005  6.440059068340027E-005  6.599128527328018E-005  6.762127001953150E-005 
 6.929151538901297E-005  7.100301581912244E-005  7.275679030985522E-005  7.455388303050727E-005 
 7.639536394136235E-005  7.828232943071213E-005  8.021590296765062E-005  8.219723577095332E-005 
 8.422750749449432E-005  8.630792692960928E-005  8.843973272477006E-005  9.062419412307141E-005 
 9.286261171791237E-005  9.515631822734394E-005  9.750667928756057E-005  9.991509426596303E-005 
 1.023829970943316E-004  1.049118571225609E-004  1.075031799934887E-004  1.101585085393284E-004 
 1.128794237002509E-004  1.156675454656453E-004  1.185245338386482E-004  1.214520898244613E-004 
 1.244519564431275E-004  1.275259197672723E-004  1.306758099855220E-004  1.339035024921658E-004 
 1.372109190037216E-004  1.406000287031151E-004  1.440728494120818E-004  1.476314487925593E-004 
 1.512779455777343E-004  1.550145108335053E-004  1.588433692510926E-004  1.627668004715940E-004 
 1.667871404432431E-004  1.709067828121903E-004  1.751281803476519E-004  1.794538464022404E-004 
 1.838863564083758E-004  1.884283494116622E-004  1.930825296421305E-004  1.978516681242896E-004 
 2.027386043269611E-004  2.077462478538357E-004  2.128775801758255E-004  2.181356564061683E-004 
 2.235236071194001E-004  2.290446402152503E-004  2.347020428285671E-004  2.404991832864326E-004 
 2.464395131135966E-004  2.525265690875035E-004  2.587639753439807E-004  2.651554455349692E-004 
 2.717047850396852E-004  2.784158932301744E-004  2.852927657929607E-004  2.923394971080355E-004 
 2.995602826866017E-004  3.069594216689628E-004  3.145413193841936E-004  3.223104899729812E-004 
 3.302715590752973E-004  3.384292665844620E-004  3.467884694691127E-004  3.553541446649813E-004 
 3.641313920382111E-004  3.731254374215576E-004  3.823416357258857E-004  3.917854741283081E-004 
 4.014625753392812E-004  4.113787009501476E-004  4.215397548636140E-004  4.319517868087495E-004 
 4.426209959429220E-004  4.535537345427199E-004  4.647565117859346E-004  4.762359976270435E-004 
 4.879990267684131E-004  5.000526027296152E-004  5.124039020170256E-004  5.250602783968538E-004 
 5.380292672732403E-004  5.513185901749067E-004  5.649361593522168E-004  5.788900824882091E-004 
 5.931886675256753E-004  6.078404276135536E-004  6.228540861756163E-004  6.382385821041543E-004 
 6.540030750821313E-004  6.701569510366544E-004  6.867098277272574E-004  7.036715604721135E-004 
 7.210522480157943E-004  7.388622385417677E-004  7.571121358337594E-004  7.758128055888578E-004 
 7.949753818869005E-004  8.146112738195078E-004  8.347321722828409E-004  8.553500569382311E-004 
 8.764772033446078E-004  8.981261902672164E-004  9.203099071668220E-004  9.430415618738399E-004 
 9.663346884521258E-004  9.902031552568929E-004  1.014661173191731E-003  1.039723304169558E-003 
 1.065404469782563E-003  1.091719960186176E-003  1.118685443202789E-003  1.146316973649886E-003 
 1.174631002899031E-003  1.203644388670651E-003  1.233374405070826E-003  1.263838752876062E-003 
 1.295055570072092E-003  1.327043442652874E-003  1.359821415686402E-003  1.393409004653872E-003 
 1.427826207068812E-003  1.463093514383419E-003  1.499231924188671E-003  1.536262952716153E-003 
 1.574208647648235E-003  1.613091601245140E-003  1.652934963795896E-003  1.693762457401657E-003 
 1.735598390099485E-003  1.778467670334943E-003  1.822395821792203E-003  1.867408998590465E-003 
 1.913534000855648E-003  1.960798290676792E-003  2.009230008456499E-003  2.058857989665379E-003 
 2.109711782010132E-003  2.161821663025765E-003  2.215218658102499E-003  2.269934558957632E-003 
 2.326001942563892E-003  2.383454190545229E-003  2.442325509051740E-003  2.502650949125161E-003 
 2.564466427568694E-003  2.627808748329585E-003  2.692715624413363E-003  2.759225700336381E-003 
 2.827378575134660E-003  2.897214825940520E-003  2.968776032141162E-003  3.042104800135027E-003 
 3.117244788698412E-003  3.194240734979401E-003  3.273138481133267E-003  3.353985001617163E-003 
 3.436828431157275E-003  3.521718093406726E-003  3.608704530314018E-003  3.697839532212728E-003 
 3.789176168658326E-003  3.882768820024321E-003  3.978673209878719E-003  4.076946438162736E-003 
 4.177647015185464E-003  4.280834896460558E-003  4.386571518403025E-003  4.494919834907589E-003 
 4.605944354829841E-003  4.719711180394097E-003  4.836288046549939E-003  4.955744361299603E-003 
 5.078151247023830E-003  5.203581582825187E-003  5.332110047921066E-003  5.463813166104669E-003 
 5.598769351307410E-003  5.737058954284679E-003  5.878764310455722E-003  6.023969788923993E-003 
 6.172761842710421E-003  6.325229060225212E-003  6.481462218012847E-003  6.641554334797820E-003 
 6.805600726867270E-003  6.973699064820962E-003  7.145949431721829E-003  7.322454382685381E-003 
 7.503319005937732E-003  7.688650985384476E-003  7.878560664723344E-003  8.073161113142113E-003 
 8.272568192636684E-003  8.476900626994919E-003  8.686280072481654E-003  8.900831190271963E-003 
 9.120681720671701E-003  9.345962559172206E-003  9.576807834383765E-003  9.813354987893052E-003 
 1.005574485609398E-002  1.030412175403963E-002  1.055863356136427E-002  1.081943181033007E-002 
 1.108667177604524E-002  1.136051256891344E-002  1.164111722936565E-002  1.192865282493097E-002 
 1.222329054970689E-002  1.252520582628443E-002  1.283457841019387E-002  1.315159249692551E-002 
 1.347643683159966E-002  1.380930482134003E-002  1.415039465042730E-002  1.449990939829283E-002 
 1.485805716043060E-002  1.522505117229324E-002  1.560110993624876E-002  1.598645735167421E-002 
 1.638132284826052E-002  1.678594152261259E-002  1.720055427822123E-002  1.762540796889317E-002 
 1.806075554572486E-002  1.850685620770436E-002  1.896397555603453E-002  1.943238575226848E-002 
 1.991236568034969E-002  2.040420111265422E-002  2.090818488013670E-002  2.142461704667613E-002 
 2.195380508772911E-002  2.249606407339611E-002  2.305171685600877E-002  2.362109426235223E-002 
 2.420453529063244E-002  2.480238731230988E-002  2.541500627892420E-002  2.604275693401551E-002 
 2.668601303028489E-002  2.734515755213301E-002  2.802058294366981E-002  2.871269134237997E-002 
 2.942189481853705E-002  3.014861562055416E-002  3.089328642638078E-002  3.165635060111198E-002 
 3.243826246096097E-002  3.323948754374653E-002  3.406050288607568E-002  3.490179730736329E-002 
 3.576387170085437E-002  3.664723933186635E-002  3.755242614336350E-002  3.847997106910506E-002 
 3.943042635451110E-002  4.040435788546805E-002  4.140234552523749E-002  4.242498345971205E-002 
 4.347288055116745E-002  4.454666070078141E-002  4.564696322009014E-002  4.677444321162661E-002 
 4.792977195895274E-002  4.911363732633929E-002  5.032674416829847E-002  5.156981474925709E-002 
 5.284358917356308E-002  5.414882582614991E-002  5.548630182405649E-002  5.685681347910999E-002 
 5.826117677204498E-002  5.970022783831487E-002  6.117482346592043E-002  6.268584160552841E-002 
 6.423418189318544E-002  6.582076618594683E-002  6.744653911073979E-002  6.911246862677592E-002 
 7.081954660185709E-002  7.256878940292089E-002  7.436123850117508E-002  7.619796109215225E-002 
 7.808005073112929E-002  8.000862798418712E-002  8.198484109539877E-002  8.400986667045320E-002 
 8.608491037721504E-002  8.821120766353036E-002  9.039002449281962E-002  9.262265809779281E-002 
 9.491043775280823E-002  9.725472556530233E-002  9.965691728676639E-002  1.021184431437481E-001 
 1.046407686894000E-001  1.072253956760275E-001  1.098738629492265E-001  1.125877473640711E-001 
 1.153686647239640E-001  1.182182707426466E-001  1.211382620299887E-001  1.241303771021311E-001 
 1.271963974165534E-001  1.303381484327423E-001  1.335575006990304E-001  1.368563709662975E-001 
 1.402367233291632E-001  1.437005703953952E-001  1.472499744841610E-001  1.508870488539205E-001 
 1.546139589606109E-001  1.584329237469393E-001  1.623462169634879E-001  1.663561685224851E-001 
 1.704651658849907E-001  1.746756554823505E-001  1.789901441727639E-001  1.834112007338307E-001 
 1.879414573919576E-001  1.925836113895383E-001  1.973404265908593E-001  2.022147351276548E-001 
 2.072094390853076E-001  2.123275122307144E-001  2.175720017828127E-001  2.229460302268489E-001 
 2.284527971734521E-001  2.340955812636357E-001  2.398777421208469E-001  2.458027223512329E-001 
 2.518740495933092E-001  2.580953386182729E-001  2.644702934821265E-001  2.710027097311514E-001 
 2.776964766615087E-001  2.845555796350323E-001  2.915841024520202E-001  2.987862297825860E-001 
 3.061662496582284E-001  3.137285560247917E-001  3.214776513585972E-001  3.294181493471612E-001 
 3.375547776360122E-001  3.458923806436326E-001  3.544359224455255E-001  3.631904897299436E-001 
 3.721612948262566E-001  3.813536788084711E-001  3.907731146750475E-001  4.004252106075051E-001 
 4.103157133095224E-001  4.204505114282648E-001  4.308356390605506E-001  4.414772793453436E-001 
 4.523817681451602E-001  4.635555978183643E-001  4.750054210844752E-001  4.867380549852462E-001 
 4.987604849433896E-001  5.110798689214890E-001  5.237035416838546E-001  5.366390191634437E-001 
 5.498940029367755E-001  5.634763848093293E-001  5.773942515141077E-001  5.916558895265162E-001 
 6.062697899978239E-001  6.212446538107725E-001  6.365893967598908E-001  6.523131548598616E-001 
 6.684252897848905E-001  6.849353944425917E-001  7.018532986853183E-001  7.191890751628416E-001 
 7.369530453193542E-001  7.551557855387537E-001  7.738081334415692E-001  7.929211943375605E-001 
 8.125063478376974E-001  8.325752546293000E-001  8.531398634186366E-001  8.742124180450768E-001 
 8.958054647708008E-001  9.179318597506310E-001  9.406047766864699E-001  9.638377146706217E-001 
 9.876445062229903E-001  1.012039325526702E+000  1.037036696867195E+000  1.062651503279835E+000 
 1.088898995410828E+000  1.115794800597494E+000  1.143354932172236E+000  1.171595798996895E+000 
 1.200534215232120E+000  1.230187410348350E+000  1.260573039383969E+000  1.291709193456747E+000 
 1.323614410535124E+000  1.356307686475331E+000  1.389808486331294E+000  1.424136755943653E+000 
 1.459312933815485E+000  1.495357963280719E+000  1.532293304973744E+000  1.570140949606613E+000 
 1.608923431061891E+000  1.648663839809112E+000  1.689385836652401E+000  1.731113666817704E+000 
 1.773872174388098E+000  1.817686817095496E+000  1.862583681477756E+000
    </PP_RAB>
  </PP_MESH>
  <PP_LOCAL type="real" size="547" columns="4">
-7.950579213590001E-002 -7.950589366733200E-002 -7.950599273653799E-002 -7.950608940212400E-002 
-7.950618372125200E-002 -7.950627574966600E-002 -7.950636554171600E-002 -7.950645315041199E-002 
-7.950653862743200E-002 -7.950662202316600E-002 -7.950670338673400E-002 -7.950678276602800E-002 
-7.950686020772200E-002 -7.950693575731400E-002 -7.950700945914201E-002 -7.950708135641001E-002 
-7.950715149121600E-002 -7.950721990457400E-002 -7.950728663643400E-002 -7.950735172570800E-002 
-7.950741521028599E-002 -7.950747712705999E-002 -7.950753751194800E-002 -7.950759639990200E-002 
-7.950765382493601E-002 -7.950770982013800E-002 -7.950776441769800E-002 -7.950781764890399E-002 
-7.950786954418000E-002 -7.950792013308400E-002 -7.950796944433400E-002 -7.950801750581600E-002 
-7.950806434459599E-002 -7.950810998693600E-002 -7.950815445830600E-002 -7.950819778339201E-002 
-7.950823998610800E-002 -7.950828108960400E-002 -7.950832111628001E-002 -7.950836008779000E-002 
-7.950839802505000E-002 -7.950843494824600E-002 -7.950847087684200E-002 -7.950850582958000E-002 