<UPF version="2.0.1">
  <PP_INFO>
    Generated using FHI98PP, converted with fhi2upf.x v.5.0.1
    Author: Abinit web site
    Generation date: 10-Jul-2012, PG
    Pseudopotential type: SL
    Element: Ge
    Functional: SLA-PW

    Suggested minimum cutoff for wavefunctions:   0. Ry
    Suggested minimum cutoff for charge density:   0. Ry
    The Pseudo was generated with a Non-Relativistic Calculation
    L component and cutoff radius for Local Potential:  0   0.0000

    Valence configuration: 
    nl pn  l   occ       Rcut    Rcut US       E pseu
    4s  4  0  2.00      0.000      0.000     0.000000
    4p  4  1  2.00      0.000      0.000     0.000000
    4d  4  2  0.00      0.000      0.000     0.000000
    4f  4  3  0.00      0.000      0.000     0.000000

    Generation configuration: not available.
    Comment:
    germanium, fhi98PP : Trouiller-Martins-type, LDA Ceperley/Alder Perdew/Wang (199
  </PP_INFO>
  <!--                               -->
  <!-- END OF HUMAN READABLE SECTION -->
  <!--                               -->
  <PP_HEADER generated="Generated using FHI98PP, converted with fhi2upf.x v.5.0.1"
             author="Abinit web site"
             date="10-Jul-2012, PG"
             comment="germanium, fhi98PP : Trouiller-Martins-type, LDA Ceperley/Alder Perdew/Wang (199"
             element="Ge"
             pseudo_type="SL"
             relativistic="no"
             is_ultrasoft="F"
             is_paw="F"
             is_coulomb="F"
             has_so="F"
             has_wfc="F"
             has_gipaw="F"
             paw_as_gipaw="F"
             core_correction="F"
             functional="SLA-PW"
             z_valence="4.000000000000000E+000"
             total_psenergy="0.000000000000000E+000"
             wfc_cutoff="0.000000000000000E+000"
             rho_cutoff="0.000000000000000E+000"
             l_max="3"
             l_max_rho="0"
             l_local="0"
             mesh_size="529"
             number_of_wfc="4"
             number_of_proj="3"/>
  <PP_MESH dx="2.439988682353512E-002" mesh="529" xmin="-5.075173815233827E+000" rmax="7.687882836779600E+001"
zmesh="3.200000000000000E+001">
    <PP_R type="real" size="529" columns="4">
 1.953125000000000E-004  2.001367187500000E-004  2.050800957031300E-004  2.101455740669900E-004 
 2.153361697464500E-004  2.206549731391800E-004  2.261051509757200E-004  2.316899482048200E-004 
 2.374126899254800E-004  2.432767833666400E-004  2.492857199158000E-004  2.554430771977200E-004 
 2.617525212045000E-004  2.682178084782500E-004  2.748427883476600E-004  2.816314052198500E-004 
 2.885877009287800E-004  2.957158171417200E-004  3.030199978251200E-004  3.105045917714000E-004 
 3.181740551881600E-004  3.260329543513100E-004  3.340859683237800E-004  3.423378917413800E-004 
 3.507936376673900E-004  3.594582405177800E-004  3.683368590585700E-004  3.774347794773100E-004 
 3.867574185304000E-004  3.963103267681000E-004  4.060991918392700E-004  4.161298418777000E-004 
 4.264082489720800E-004  4.369405327216900E-004  4.477329638799200E-004  4.587919680877500E-004 
 4.701241296995200E-004  4.817361957031000E-004  4.936350797369700E-004  5.058278662064700E-004 
 5.183218145017700E-004  5.311243633199600E-004  5.442431350939700E-004  5.576859405307900E-004 
 5.714607832619000E-004  5.855758646084700E-004  6.000395884643000E-004  6.148605662993600E-004 
 6.300476222869600E-004  6.456097985574500E-004  6.615563605818100E-004  6.778968026881900E-004 
 6.946408537145800E-004  7.117984828013300E-004  7.293799053265300E-004  7.473955889880901E-004 
 7.658562600360999E-004  7.847729096589900E-004  8.041568005275700E-004  8.240194735006000E-004 
 8.443727544960599E-004  8.652287615321101E-004  8.865999119419599E-004  9.084989297669200E-004 
 9.309388533321700E-004  9.539330430094700E-004  9.774951891718100E-004  1.001639320344300E-003 
 1.026379811556900E-003  1.051731392902300E-003  1.077709158307000E-003  1.104328574517200E-003 
 1.131605490307800E-003  1.159556145918400E-003  1.188197182722500E-003  1.217545653135800E-003 
 1.247619030768200E-003  1.278435220828200E-003  1.310012570782700E-003  1.342369881281000E-003 
 1.375526417348600E-003  1.409501919857200E-003  1.444316617277600E-003  1.479991237724400E-003 
 1.516547021296200E-003  1.554005732722200E-003  1.592389674320400E-003  1.631721699276100E-003 
 1.672025225248300E-003  1.713324248311900E-003  1.755643357245200E-003  1.799007748169200E-003 
 1.843443239548900E-003  1.888976287565800E-003  1.935634001868700E-003  1.983444161714800E-003 
 2.032435232509200E-003  2.082636382752200E-003  2.134077501406100E-003  2.186789215690900E-003 
 2.240802909318400E-003  2.296150741178600E-003  2.352865664485700E-003  2.410981446398500E-003 
 2.470532688124500E-003  2.531554845521200E-003  2.594084250205600E-003  2.658158131185700E-003 
 2.723814637026000E-003  2.791092858560500E-003  2.860032852166900E-003  2.930675663615500E-003 
 3.003063352506800E-003  3.077239017313700E-003  3.153246821041300E-003  3.231132017521100E-003 
 3.310940978353800E-003  3.392721220519200E-003  3.476521434666000E-003  3.562391514102200E-003 
 3.650382584500600E-003  3.740547034337700E-003  3.832938546085900E-003  3.927612128174200E-003 
 4.024624147740100E-003  4.124032364189300E-003  4.225895963584700E-003  4.330275593885300E-003 
 4.437233401054300E-003  4.546833066060300E-003  4.659139842792000E-003  4.774220596908900E-003 
 4.892143845652600E-003  5.012979798640200E-003  5.136800399666600E-003  5.263679369538400E-003 
 5.393692249966000E-003  5.526916448540200E-003  5.663431284819100E-003  5.803318037554100E-003 
 5.946659993081700E-003  6.093542494910800E-003  6.244052994535100E-003  6.398281103500100E-003 
 6.556318646756600E-003  6.718259717331500E-003  6.884200732349600E-003  7.054240490438600E-003 
 7.228480230552400E-003  7.407023692247100E-003  7.589977177445600E-003  7.777449613728500E-003 
 7.969552619187600E-003  8.166400568881500E-003  8.368110662932899E-003  8.574802996307300E-003 
 8.786600630316100E-003  9.003629665884900E-003  9.226019318632300E-003  9.453901995802500E-003 
 9.687413375098800E-003  9.926692485463800E-003  1.017188178985500E-002  1.042312727006400E-002 
 1.068057851363500E-002  1.094438880292200E-002  1.121471520635400E-002  1.149171867195100E-002 
 1.177556412314800E-002  1.206642055699000E-002  1.236446114474700E-002  1.266986333502200E-002 
 1.298280895939700E-002  1.330348434069500E-002  1.363208040391000E-002  1.396879278988600E-002 
 1.431382197179700E-002  1.466737337450000E-002  1.502965749685000E-002  1.540089003702200E-002 
 1.578129202093700E-002  1.617108993385400E-002  1.657051585522000E-002  1.697980759684400E-002 
 1.739920884448600E-002  1.782896930294500E-002  1.826934484472800E-002  1.872059766239200E-002 
 1.918299642465300E-002  1.965681643634200E-002  2.014233980232000E-002  2.063985559543700E-002 
 2.114966002864500E-002  2.167205663135200E-002  2.220735643014600E-002  2.275587813397100E-002 
 2.331794832388000E-002  2.389390164748000E-002  2.448408101817300E-002  2.508883781932200E-002 
 2.570853211345900E-002  2.634353285666100E-002  2.699421811822100E-002  2.766097530574100E-002 
 2.834420139579300E-002  2.904430317026900E-002  2.976169745857400E-002  3.049681138580100E-002 
 3.125008262703000E-002  3.202195966791800E-002  3.281290207171600E-002  3.362338075288700E-002 
 3.445387825748300E-002  3.530488905044300E-002  3.617691980998900E-002  3.707048972929600E-002 
 3.798613082561000E-002  3.892438825700200E-002  3.988582064695000E-002  4.087100041693000E-002 
 4.188051412722800E-002  4.291496282617000E-002  4.397496240797700E-002  4.506114397945400E-002 
 4.617415423574600E-002  4.731465584536900E-002  4.848332784475000E-002  4.968086604251500E-002 
 5.090798343376500E-002  5.216541062457900E-002  5.345389626700600E-002  5.477420750480100E-002 
 5.612713043017000E-002  5.751347055179500E-002  5.893405327442500E-002  6.038972439030300E-002 
 6.188135058274300E-002  6.340981994213700E-002  6.497604249470799E-002  6.658095074432700E-002 
 6.822550022771200E-002  6.991067008333700E-002  7.163746363439499E-002  7.340690898616500E-002 
 7.522005963812300E-002  7.707799511118400E-002  7.898182159043100E-002  8.093267258371400E-002 
 8.293170959653200E-002  8.498012282356600E-002  8.707913185730801E-002  8.922998641418400E-002 
 9.143396707861400E-002  9.369238606545600E-002  9.600658800127300E-002  9.837795072490400E-002 
 1.008078861078100E-001  1.032978408946700E-001  1.058492975647700E-001  1.084637752146200E-001 
 1.111428304624200E-001  1.138880583748400E-001  1.167010934167000E-001  1.195836104240900E-001 
 1.225373256015700E-001  1.255639975439300E-001  1.286654282832600E-001  1.318434643618600E-001 
 1.350999979316000E-001  1.384369678805100E-001  1.418563609871600E-001  1.453602131035400E-001 
 1.489506103672000E-001  1.526296904432700E-001  1.563996437972200E-001  1.602627149990100E-001 
 1.642212040594800E-001  1.682774677997500E-001  1.724339212544100E-001  1.766930391093900E-001 
 1.810573571753900E-001  1.855294738976200E-001  1.901120519028900E-001  1.948078195849000E-001 
 1.996195727286400E-001  2.045501761750400E-001  2.096025655265600E-001  2.147797488950700E-001 
 2.200848086927800E-001  2.255209034674900E-001  2.310912697831400E-001  2.367992241467800E-001 
 2.426481649832100E-001  2.486415746582900E-001  2.547830215523500E-001  2.610761621846900E-001 
 2.675247433906600E-001  2.741326045524000E-001  2.809036798848500E-001  2.878420007780100E-001 
 2.949516981972200E-001  3.022370051426900E-001  3.097022591697200E-001  3.173519049712100E-001 
 3.251904970240000E-001  3.332227023004900E-001  3.414533030473100E-001  3.498871996325800E-001 
 3.585294134635100E-001  3.673850899760600E-001  3.764595016984600E-001  3.857580513904200E-001 
 3.952862752597600E-001  4.050498462586800E-001  4.150545774612600E-001  4.253064255245600E-001 
 4.358114942350100E-001  4.465760381426200E-001  4.576064662847400E-001  4.689093460019700E-001 
 4.804914068482200E-001  4.923595445973700E-001  5.045208253489299E-001  5.169824897350500E-001 
 5.297519572315000E-001  5.428368305751200E-001  5.562449002903300E-001  5.699841493275000E-001 
 5.840627578158900E-001  5.984891079339399E-001  6.132717888999100E-001  6.284196020857400E-001 
 6.439415662572500E-001  6.598469229438100E-001  6.761451419405200E-001  6.928459269464500E-001 
 7.099592213420300E-001  7.274952141091801E-001  7.454643458976700E-001  7.638773152413399E-001 
 7.827450849278100E-001  8.020788885255200E-001  8.218902370721000E-001  8.421909259277800E-001 
 8.629930417982000E-001  8.843089699306200E-001  9.061514014879000E-001  9.285333411046500E-001 
 9.514681146299400E-001  9.749693770613000E-001  9.990511206747100E-001  1.023727683355400E+000 
 1.049013757134300E+000  1.074924396935500E+000  1.101475029539800E+000  1.128681462769400E+000 
 1.156559894899800E+000  1.185126924303800E+000  1.214399559334100E+000  1.244395228449700E+000 
 1.275131790592400E+000  1.306627545820000E+000  1.338901246201800E+000  1.371972106983000E+000 
 1.405859818025500E+000  1.440584555530700E+000  1.476166994052300E+000  1.512628318805400E+000 
 1.549990238279900E+000  1.588274997165400E+000  1.627505389595400E+000  1.667704772718400E+000 
 1.708897080604500E+000  1.751106838495500E+000  1.794359177406300E+000  1.838679849088200E+000 
 1.884095241360700E+000  1.930632393822300E+000  1.978319013949700E+000  2.027183493594300E+000 
 2.077254925886100E+000  2.128563122555500E+000  2.181138631682600E+000  2.235012755885100E+000 
 2.290217570955500E+000  2.346785944958100E+000  2.404751557798600E+000  2.464148921276200E+000 
 2.525013399631700E+000  2.587381230602600E+000  2.651289546998500E+000  2.716776398809400E+000 
 2.783880775859900E+000  2.852642631023700E+000  2.923102904010000E+000  2.995303545739000E+000 
 3.069287543318800E+000  3.145098945638700E+000  3.222782889596000E+000  3.302385626969000E+000 
 3.383954551955200E+000  3.467538229388500E+000  3.553186423654400E+000  3.640950128318600E+000 
 3.730881596488100E+000  3.823034371921400E+000  3.917463320907800E+000  4.014224664934200E+000 
 4.113376014158100E+000  4.214976401707800E+000  4.319086318830000E+000  4.425767750905100E+000 
 4.535084214352400E+000  4.647100794447000E+000  4.761884184069800E+000  4.879502723416300E+000 
 5.000026440684700E+000  5.123527093769600E+000  5.250078212985700E+000  5.379755144846500E+000 
 5.512635096924200E+000  5.648797183818200E+000  5.788322474258500E+000  5.931294039372700E+000 
 6.077797002145200E+000  6.227918588098200E+000  6.381748177224200E+000  6.539377357201600E+000 
 6.700899977924500E+000  6.866412207379300E+000  7.036012588901500E+000  7.209802099847400E+000 
 7.387884211713600E+000  7.570364951743000E+000  7.757352966051000E+000  7.948959584312500E+000 
 8.145298886045000E+000  8.346487768530300E+000  8.552646016413000E+000  8.763896373018399E+000 
 8.980364613431901E+000  9.202179619383701E+000  9.429473455982500E+000  9.662381450345300E+000 
 9.901042272168800E+000  1.014559801629100E+001  1.039619428729400E+001  1.065298028619000E+001 
 1.091610889925900E+001  1.118573678907000E+001  1.146202448776100E+001  1.174513649260800E+001 
 1.203524136397600E+001  1.233251182566600E+001  1.263712486776000E+001  1.294926185199300E+001 
 1.326910861973800E+001  1.359685560264500E+001  1.393269793603100E+001  1.427683557505000E+001 
 1.462947341375400E+001  1.499082140707400E+001  1.536109469582900E+001  1.574051373481600E+001 
 1.612930442406600E+001  1.652769824334000E+001  1.693593238995100E+001  1.735424991998200E+001 
 1.778289989300600E+001  1.822213752036300E+001  1.867222431711600E+001  1.913342825774900E+001 
 1.960602393571500E+001  2.009029272692700E+001  2.058652295728300E+001  2.109501007432700E+001 
 2.161605682316300E+001  2.214997342669500E+001  2.269707777033500E+001  2.325769559126200E+001 
 2.383216067236600E+001  2.442081504097400E+001  2.502400917248600E+001  2.564210219904600E+001 
 2.627546212336300E+001  2.692446603781000E+001  2.758950034894300E+001  2.827096100756200E+001 
 2.896925374444900E+001  2.968479431193700E+001  3.041800873144200E+001  3.116933354710900E+001 
 3.193921608572200E+001  3.272811472303900E+001  3.353649915669900E+001  3.436485068586900E+001 
 3.521366249781000E+001  3.608343996150600E+001  3.697470092855500E+001  3.788797604149000E+001 
 3.882380904971500E+001  3.978275713324300E+001  4.076539123443400E+001  4.177229639792500E+001 
 4.280407211895300E+001  4.386133270029200E+001  4.494470761798900E+001  4.605484189615300E+001 
 4.719239649098800E+001  4.835804868431600E+001  4.955249248681800E+001  5.077643905124300E+001 
 5.203061709580800E+001  5.331577333807500E+001  5.463267293952500E+001  5.598209996113100E+001 
 5.736485783017100E+001  5.878176981857700E+001  6.023367953309500E+001  6.172145141756300E+001 
 6.324597126757700E+001  6.480814675788601E+001  6.640890798280600E+001  6.804920800998100E+001 
 6.973002344782699E+001  7.145235502698900E+001  7.321722819615501E+001  7.502569373260000E+001 
 7.687882836779600E+001
    </PP_R>
    <PP_RAB type="real" size="529" columns="4">
 4.765602895221704E-006  4.883313286733680E-006  5.003931124916123E-006  5.127528223701373E-006 
 5.254178170826928E-006  5.383956371646174E-006  5.516940094025890E-006  5.653208514348323E-006 
 5.792842764652749E-006  5.935925980939687E-006  6.082543352668995E-006  6.232782173479913E-006 
 6.386731893164776E-006  6.544484170925919E-006  6.706132929947722E-006  6.871774413317498E-006 
 7.041507241326434E-006  7.215432470187175E-006  7.393653652200788E-006  7.576276897410135E-006 
 7.763410936776322E-006  7.955167186914756E-006  8.151659816431371E-006  8.353005813897291E-006 
 8.559325057500503E-006  8.770740386420899E-006  8.987377673965515E-006  9.209365902512300E-006 
 9.436837240304366E-006  9.669927120139863E-006  9.908774320007265E-006  1.015352104571145E-005 
 1.040431301554054E-005  1.066129954702438E-005  1.092463364583599E-005  1.119447209688804E-005 
 1.147097555768123E-005  1.175430865395601E-005  1.204464007770880E-005  1.234214268762813E-005 
 1.264699361201255E-005  1.295937435422917E-005  1.327947090077880E-005  1.360747383202801E-005 
 1.394357843567909E-005  1.428798482304039E-005  1.464089804816951E-005  1.500252822995910E-005 
 1.537309067723923E-005  1.575280601696709E-005  1.614190032558596E-005  1.654060526362816E-005 
 1.694915821363957E-005  1.736780242151646E-005  1.779678714132809E-005  1.823636778371877E-005 
 1.868680606797672E-005  1.914837017785571E-005  1.962133492124882E-005  2.010598189380364E-005 
 2.060259964658047E-005  2.111148385785094E-005  2.163293750914003E-005  2.216727106561563E-005 
 2.271480266093651E-005  2.327585828666153E-005  2.385077198634222E-005  2.443988605440356E-005 
 2.504355123994967E-005  2.566212695557507E-005  2.629598149137809E-005  2.694549223421555E-005 
 2.761104589240129E-005  2.829303872594354E-005  2.899187678247228E-005  2.970797613900067E-005 
 3.044176314963266E-005  3.119367469942921E-005  3.196415846450617E-005  3.275367317857867E-005 
 3.356268890608858E-005  3.439168732207115E-005  3.524116199892453E-005  3.611161870029902E-005 
 3.700357568219659E-005  3.791756400154645E-005  3.885412783238371E-005  3.981382478984325E-005 
 4.079722626215434E-005  4.180491775082874E-005  4.283749921927412E-005  4.389558544999125E-005 
 4.497980641060410E-005  4.609080762894706E-005  4.722925057738265E-005  4.839581306664261E-005 
 4.959118964938977E-005  5.081609203373025E-005  5.207124950696145E-005  5.335740936978509E-005 
 5.467533738121720E-005  5.602581821453412E-005  5.740965592443284E-005  5.882767442576641E-005 
 6.028071798408179E-005  6.176965171828922E-005  6.329536211573160E-005  6.485875755999071E-005 
 6.646076887172280E-005  6.810234986285332E-005  6.978447790446472E-005  7.150815450870689E-005 
 7.327440592507188E-005  7.508428375142070E-005  7.693886556007963E-005  7.883925553941554E-005 
 8.078658515123737E-005  8.278201380447443E-005  8.482672954544435E-005  8.692194976521560E-005 
 8.906892192441827E-005  9.126892429594982E-005  9.352326672606122E-005  9.583329141419440E-005 
 9.820037371212493E-005  1.006259229428149E-004  1.031113832395006E-004  1.056582344055177E-004 
 1.082679927953347E-004  1.109422122173785E-004  1.136824848591480E-004  1.164904422351674E-004 
 1.193677561583773E-004  1.223161397354887E-004  1.253373483869550E-004  1.284331808921137E-004 
 1.316054804601489E-004  1.348561358275156E-004  1.381870823824541E-004  1.416003033173000E-004 
 1.450978308092376E-004  1.486817472302254E-004  1.523541863868120E-004  1.561173347905658E-004 
 1.599734329598940E-004  1.639247767540036E-004  1.679737187398279E-004  1.721226695927007E-004 
 1.763740995316396E-004  1.807305397900725E-004  1.851945841228872E-004  1.897688903507223E-004 
 1.944561819423853E-004  1.992592496363614E-004  2.041809531023802E-004  2.092242226440080E-004 
 2.143920609433152E-004  2.196875448486149E-004  2.251138272063767E-004  2.306741387383738E-004 
 2.363717899652111E-004  2.422101731773533E-004  2.481927644548399E-004  2.543231257368642E-004 
 2.606049069425750E-004  2.670418481440619E-004  2.736377817932159E-004  2.803966350035097E-004 
 2.873224318880918E-004  2.944192959557336E-004  3.016914525658243E-004  3.091432314441941E-004 
 3.167790692608646E-004  3.246035122716298E-004  3.326212190247349E-004  3.408369631346318E-004 
 3.492556361240771E-004  3.578822503363324E-004  3.667219419196362E-004  3.757799738850464E-004 
 3.850617392400207E-004  3.945727641992456E-004  4.043187114749623E-004  4.143053836483955E-004 
 4.245387266245097E-004  4.350248331721398E-004  4.457699465514980E-004  4.567804642313010E-004 
 4.680629416978121E-004  4.796240963577498E-004  4.914708115377948E-004  5.036101405827709E-004 
 5.160493110551826E-004  5.287957290382327E-004  5.418569835454674E-004  5.552408510390500E-004 
 5.689553000597125E-004  5.830084959711913E-004  5.974088058216858E-004  6.121648033254845E-004 
 6.272852739676177E-004  6.427792202346073E-004  6.586558669744136E-004  6.749246668886802E-004 
 6.915953061608353E-004  7.086777102230060E-004  7.261820496654984E-004  7.441187462922416E-004 
 7.624984793256532E-004  7.813321917650055E-004  8.006310969016115E-004  8.204066849950718E-004 
 8.406707301144427E-004  8.614352971482736E-004  8.827127489878374E-004  9.045157538878435E-004 
 9.268572930088827E-004  9.497506681461883E-004  9.732095096494004E-004  9.972477845377487E-004 
 1.021879804815827E-003  1.047120235994765E-003  1.072984105823850E-003  1.099486813237699E-003 
 1.126644137524657E-003  1.154472247721518E-003  1.182987712240249E-003  1.212207508732575E-003 
 1.242149034198267E-003  1.272830115342964E-003  1.304269019191933E-003  1.336484463965972E-003 
 1.369495630225942E-003  1.403322172292518E-003  1.437984229948159E-003  1.473502440427872E-003 
 1.509897950706428E-003  1.547192430088883E-003  1.585408083112084E-003  1.624567662764945E-003 
 1.664694484035242E-003  1.705812437790925E-003  1.747946005004351E-003  1.791120271327969E-003 
 1.835360942029764E-003  1.880694357297883E-003  1.927147507923159E-003  1.974748051368846E-003 
 2.023524328237662E-003  2.073505379145124E-003  2.124720962010007E-003  2.177201569771666E-003 
 2.230978448545018E-003  2.286083616224086E-003  2.342549881544826E-003  2.400410863618973E-003 
 2.459701011950382E-003  2.520455626945486E-003  2.582710880931080E-003  2.646503839690082E-003 
 2.711872484530400E-003  2.778855734898257E-003  2.847493471550280E-003  2.917826560297511E-003 
 2.989896876336981E-003  3.063747329182534E-003  3.139421888213219E-003  3.216965608852171E-003 
 3.296424659390869E-003  3.377846348477811E-003  3.461279153285247E-003  3.546772748371323E-003 
 3.634378035256157E-003  3.724147172726988E-003  3.816133607893374E-003  3.910392108008308E-003 
 4.006978793075979E-003  4.105951169264975E-003  4.207368163145971E-003  4.311290156775581E-003 
 4.417779023647891E-003  4.526898165531942E-003  4.638712550220550E-003  4.753288750211209E-003 
 4.870694982341254E-003  4.991001148405147E-003  5.114278876770668E-003  5.240601565027001E-003 
 5.370044423683210E-003  5.502684520948146E-003  5.638600828615638E-003  5.777874269082357E-003 
 5.920587763528802E-003  6.066826281287834E-003  6.216676890435650E-003  6.370228809629335E-003 
 6.527573461227380E-003  6.688804525719469E-003  6.854017997504879E-003  7.023312242043352E-003 
 7.196788054421656E-003  7.374548719365838E-003  7.556700072734310E-003  7.743350564530798E-003 
 7.934611323474734E-003  8.130596223164492E-003  8.331421949876603E-003  8.537208072038591E-003 
 8.748077111418074E-003  8.964154616070131E-003  9.185569235086852E-003  9.412452795193694E-003 
 9.644940379234895E-003  9.883170406602092E-003  1.012728471564494E-002  1.037742864812153E-002 
 1.063375113572997E-002  1.089640478878263E-002  1.116554598706550E-002  1.144133497294594E-002 
 1.172393594677774E-002  1.201351716466312E-002  1.231025103863042E-002  1.261431423928463E-002 
 1.292588780099482E-002  1.324515722967944E-002  1.357231261325263E-002  1.390754873479994E-002 
 1.425106518854952E-002  1.460306649870663E-002  1.496376224122473E-002  1.533336716858303E-002 
 1.571210133764684E-002  1.610019024068686E-002  1.649786493963178E-002  1.690536220364066E-002 
 1.732292465007065E-002  1.775080088892744E-002  1.818924567088379E-002  1.863852003895455E-002 
 1.909889148391695E-002  1.957063410356953E-002  2.005402876592769E-002  2.054936327644608E-002 
 2.105693254937439E-002  2.157703878334405E-002  2.210999164129249E-002  2.265610843483239E-002 
 2.321571431317287E-002  2.378914245670826E-002  2.437673427538885E-002  2.497883961199156E-002 
 2.559581695040828E-002  2.622803362908294E-002  2.687586605972112E-002  2.753969995139543E-002 
 2.821993054019479E-002  2.891696282453700E-002  2.963121180630296E-002  3.036310273791981E-002 
 3.111307137554625E-002  3.188156423852145E-002  3.266903887521405E-002  3.347596413543222E-002 
 3.430282044957788E-002  3.515010011468173E-002  3.601830758751416E-002  3.690795978492596E-002 
 3.781958639161379E-002  3.875373017548633E-002  3.971094731082119E-002  4.069180770939832E-002 
 4.169689535981938E-002  4.272680867520860E-002  4.378216084948530E-002  4.486358022246671E-002 
 4.597171065396217E-002  4.710721190711481E-002  4.827076004122028E-002  4.946304781423946E-002 
 5.068478509525168E-002  5.193669928710472E-002  5.321953575949569E-002  5.453405829275377E-002 
 5.588104953258571E-002  5.726131145604056E-002  5.867566584900561E-002  6.012495479547544E-002 
 6.161004117892314E-002  6.313180919604246E-002  6.469116488318510E-002  6.628903665580067E-002 
 6.792637586119669E-002  6.960415734496973E-002  7.132338003139084E-002  7.308506751816506E-002 
 7.489026868586486E-002  7.674005832240392E-002  7.863553776296789E-002  8.057783554571267E-002 
 8.256810808369337E-002  8.460754035336077E-002  8.669734660008888E-002  8.883877106110952E-002 
 9.103308870631967E-002  9.328160599736685E-002  9.558566166550037E-002  9.794662750863767E-002 
 1.003659092081017E-001  1.028449471655416E-001  1.053852173605309E-001  1.079882322293360E-001 
 1.106555415653993E-001  1.133887334420669E-001  1.161894351580850E-001  1.190593142064891E-001 
 1.220000792673898E-001  1.250134812252941E-001  1.281013142115586E-001  1.312654166725854E-001 
 1.345076724643980E-001  1.378300119742680E-001  1.412344132700322E-001  1.447229032778024E-001 
 1.482975589887639E-001  1.519605086957867E-001  1.557139332605720E-001  1.595600674121072E-001 
 1.635012010771868E-001  1.675396807437949E-001  1.716779108581649E-001  1.759183552563624E-001 
 1.802635386311938E-001  1.847160480353861E-001  1.892785344218589E-001  1.939537142220798E-001 
 1.987443709633647E-001  2.036533569261595E-001  2.086835948422357E-001  2.138380796348389E-001 
 2.191198802018181E-001  2.245321412428038E-001  2.300780851315016E-001  2.357610138342505E-001 
 2.415843108759557E-001  2.475514433545828E-001  2.536659640054559E-001  2.599315133163868E-001 
 2.663518216953041E-001  2.729307116911612E-001  2.796721002699565E-001  2.865800011466074E-001 
 2.936585271749429E-001  3.009118927961589E-001  3.083444165482253E-001  3.159605236369500E-001 
 3.237647485708016E-001  3.317617378604874E-001  3.399562527856578E-001  3.483531722294400E-001 
 3.569574955835136E-001  3.657743457244331E-001  3.748089720638332E-001  3.840667536738105E-001 
 3.935532024895547E-001  4.032739665910363E-001  4.132348335658471E-001  4.234417339549042E-001 
 4.339007447836012E-001  4.446180931797501E-001  4.556001600812908E-001  4.668534840353044E-001 
 4.783847650909667E-001  4.902008687887096E-001  5.023088302478128E-001  5.147158583549120E-001 
 5.274293400562813E-001  5.404568447556684E-001  5.538061288211489E-001  5.674851402030245E-001 
 5.815020231660351E-001  5.958651231382498E-001  6.105829916797632E-001  6.256643915742435E-001 
 6.411183020461410E-001  6.569539241066791E-001  6.731806860320920E-001  6.898082489770873E-001 
 7.068465127268266E-001  7.243056215911819E-001  7.421959704444879E-001  7.605282109144762E-001 
 7.793132577240491E-001  7.985622951898250E-001  8.182867838810367E-001  8.384984674428869E-001 
 8.592093795887270E-001  8.804318512645709E-001  9.021785179908010E-001  9.244623273851662E-001 
 9.472965468715847E-001  9.706947715793138E-001  9.946709324373203E-001  1.019239304468534E+000 
 1.044414515288888E+000  1.070211553816545E+000  1.096645779195808E+000  1.123732929941937E+000 
 1.151489133311503E+000  1.179930914904312E+000  1.209075208502433E+000  1.238939366152458E+000 
 1.269541168496407E+000  1.300898835358281E+000  1.333031036591620E+000  1.365956903195426E+000 
 1.399696038704355E+000  1.434268530860371E+000  1.469694963572602E+000  1.505996429172859E+000 
 1.543194540973433E+000  1.581311446135473E+000  1.620369838855025E+000  1.660392973874736E+000 
 1.701404680329429E+000  1.743429375933582E+000  1.786492081519127E+000  1.830618435932648E+000 
 1.875834711300204E+000
    </PP_RAB>
  </PP_MESH>
  <PP_LOCAL type="real" size="529" columns="4">
-3.507578719060000E-001 -3.507579922997400E-001 -3.507581097302600E-001 -3.507582242659200E-001 
-3.507583359733000E-001 -3.507584449172000E-001 -3.507585511606800E-001 -3.507586547651400E-001 
-3.507587557902600E-001 -3.507588542941200E-001 -3.507589503332000E-001 -3.507590439623800E-001 
-3.507591352350200E-001 -3.507592242029200E-001 -3.507593109164200E-001 -3.507593954243400E-001 
-3.507594777741200E-001 -3.507595580116800E-001 -3.507596361815800E-001 -3.507597123270000E-001 
-3.507597864897200E-001 -3.507598587101600E-001 -3.507599290274200E-001 -3.507599974792400E-001 
-3.507600641020600E-001 -3.507601289310400E-001 -3.507601920000000E-001 -3.507602533415000E-001 
-3.507603129868200E-001 -3.507603709659600E-001 -3.507604273076800E-001 -3.507604820394200E-001 
-3.507605351874000E-001 -3.507605867766000E-001 -3.507606368306600E-001 -3.507606853720400E-001 
-3.507607324218800E-001 -3.507607780000400E-001 -3.507608221251400E-001 -3.507608648144800E-001 
-3.507609060840400E-001 -3.507609459485000E-001 -3.507609844212200E-001 -3.507610215142000E-001 
-3.507610572380800E-001 -3.507610916021000E-001 -3.507611246141000E-001 -3.507611562804800E-001 
-3.507611866061600E-001 -3.507612155946200E-001 -3.507612432477600E-001 -3.507612695659200E-001 
-3.507612945478600E-001 -3.507613181906800E-001 -3.507613404898400E-001 -3.507613614390000E-001 
-3.507613810300800E-001 -3.507613992531400E-001 -3.507614160964000E-001 -3.507614315460400E-001 
-3.507614455862800E-001 -3.507614581992200E-001 -3.507614693648400E-001 -3.507614790608400E-001 
-3.507614872626200E-001 -3.507614939431400E-001 -3.507614990729000E-001 -3.507615026197600E-001 
-3.507615045489200E-001 -3.507615048227600E-001 -3.507615034007000E-001 -3.507615002391600E-001 
-3.507614952913600E-001 -3.507614885072400E-001 -3.507614798332400E-001 -3.507614692122600E-001 
-3.507614565833800E-001 -3.507614418818200E-001 -3.507614250386400E-001 -3.507614059806800E-001 