<UPF version="2.0.1">
  <PP_INFO>
    Generated using FHI98PP, converted with fhi2upf.x v.5.0.1
    Author: Abinit web site
    Generation date: 10-Jul-2012, PG
    Pseudopotential type: SL
    Element: Pb
    Functional: SLA-PW

    Suggested minimum cutoff for wavefunctions:   0. Ry
    Suggested minimum cutoff for charge density:   0. Ry
    The Pseudo was generated with a Non-Relativistic Calculation
    L component and cutoff radius for Local Potential:  0   0.0000

    Valence configuration: 
    nl pn  l   occ       Rcut    Rcut US       E pseu
    6s  6  0  2.00      0.000      0.000     0.000000
    6p  6  1  2.00      0.000      0.000     0.000000
    6d  6  2  0.00      0.000      0.000     0.000000
    5f  5  3  0.00      0.000      0.000     0.000000

    Generation configuration: not available.
    Comment:
    lead, fhi98PP : Trouiller-Martins-type, LDA Ceperley/Alder Perdew/Wang (1992), l
  </PP_INFO>
  <!--                               -->
  <!-- END OF HUMAN READABLE SECTION -->
  <!--                               -->
  <PP_HEADER generated="Generated using FHI98PP, converted with fhi2upf.x v.5.0.1"
             author="Abinit web site"
             date="10-Jul-2012, PG"
             comment="lead, fhi98PP : Trouiller-Martins-type, LDA Ceperley/Alder Perdew/Wang (1992), l"
             element="Pb"
             pseudo_type="SL"
             relativistic="no"
             is_ultrasoft="F"
             is_paw="F"
             is_coulomb="F"
             has_so="F"
             has_wfc="F"
             has_gipaw="F"
             paw_as_gipaw="F"
             core_correction="T"
             functional="SLA-PW"
             z_valence="1.400000000000000E+001"
             total_psenergy="0.000000000000000E+000"
             wfc_cutoff="0.000000000000000E+000"
             rho_cutoff="0.000000000000000E+000"
             l_max="3"
             l_max_rho="0"
             l_local="0"
             mesh_size="569"
             number_of_wfc="4"
             number_of_proj="3"/>
  <PP_MESH dx="2.439988682353512E-002" mesh="569" xmin="-5.075173815233827E+000" rmax="7.961819548870000E+001"
zmesh="8.200000000000000E+001">
    <PP_R type="real" size="569" columns="4">
 7.621951219512201E-005  7.810213414634100E-005  8.003125685975601E-005  8.200802890419201E-005 
 8.403362721812600E-005  8.610925781041300E-005  8.823615647833000E-005  9.041558954334500E-005 
 9.264885460506601E-005  9.493728131381099E-005  9.728223216226200E-005  9.968510329667000E-005 
 1.021473253481000E-004  1.046703642842000E-004  1.072557222820200E-004  1.099049386223800E-004 
 1.126195906063500E-004  1.154012944943300E-004  1.182517064683400E-004  1.211725236181100E-004 
 1.241654849514800E-004  1.272323724297800E-004  1.303750120287900E-004  1.335952748259000E-004 
 1.368950781141000E-004  1.402763865435200E-004  1.437412132911500E-004  1.472916212594400E-004 
 1.509297243045500E-004  1.546576884948700E-004  1.584777334006900E-004  1.623921334156900E-004 
 1.664032191110600E-004  1.705133786231000E-004  1.747250590750900E-004  1.790407680342500E-004 
 1.834630750046900E-004  1.879946129573100E-004  1.926380798973500E-004  1.973962404708200E-004 
 2.022719276104500E-004  2.072680442224200E-004  2.123875649147200E-004  2.176335377681100E-004 
 2.230090861509800E-004  2.285174105789100E-004  2.341617906202100E-004  2.399455868485300E-004 
 2.458722428436900E-004  2.519452872419300E-004  2.581683358368100E-004  2.645450937319700E-004 
 2.710793575471500E-004  2.777750176785700E-004  2.846360606152300E-004  2.916665713124300E-004 
 2.988707356238400E-004  3.062528427937500E-004  3.138172880107600E-004  3.215685750246200E-004 
 3.295113188277300E-004  3.376502484027800E-004  3.459902095383200E-004  3.545361677139200E-004 
 3.632932110564600E-004  3.722665533695500E-004  3.814615372377800E-004  3.908836372075500E-004 
 4.005384630465800E-004  4.104317630838300E-004  4.205694276320000E-004  4.309574924945100E-004 
 4.416021425591200E-004  4.525097154803300E-004  4.636867054527000E-004  4.751397670773800E-004 
 4.868757193241900E-004  4.989015495915000E-004  5.112244178664100E-004  5.238516609877100E-004 
 5.367907970141000E-004  5.500495297003500E-004  5.636357530839500E-004  5.775575561851200E-004 
 5.918232278229000E-004  6.064412615501200E-004  6.214203607104100E-004  6.367694436199600E-004 
 6.524976488773700E-004  6.686143408046400E-004  6.851291150225200E-004  7.020518041635700E-004 
 7.193924837264100E-004  7.371614780744500E-004  7.553693665828900E-004  7.740269899374900E-004 
 7.931454565889500E-004  8.127361493666900E-004  8.328107322560500E-004  8.533811573427800E-004 
 8.744596719291400E-004  8.960588258257901E-004  9.181914788236900E-004  9.408708083506300E-004 
 9.641103173168900E-004  9.879238421546201E-004  1.012325561055800E-003  1.037330002413900E-003 
 1.062952053473500E-003  1.089206969194300E-003  1.116110381333400E-003  1.143678307752400E-003 
 1.171927161953900E-003  1.200873762854100E-003  1.230535344796600E-003  1.260929567813100E-003 
 1.292074528138100E-003  1.323988768983100E-003  1.356691291577000E-003  1.390201566478900E-003 
 1.424539545170900E-003  1.459725671936700E-003  1.495780896033500E-003  1.532726684165500E-003 
 1.570585033264400E-003  1.609378483586100E-003  1.649130132130600E-003  1.689863646394300E-003 
 1.731603278460200E-003  1.774373879438200E-003  1.818200914260300E-003  1.863110476842500E-003 
 1.909129305620500E-003  1.956284799469400E-003  2.004605034016200E-003  2.054118778356400E-003 
 2.104855512181800E-003  2.156845443332700E-003  2.210119525783100E-003  2.264709478069900E-003 
 2.320647802178200E-003  2.377967802892000E-003  2.436703607623500E-003  2.496890186731800E-003 
 2.558563374344000E-003  2.621759889690300E-003  2.686517358965700E-003  2.752874337732100E-003 
 2.820870333874100E-003  2.890545831120800E-003  2.961942313149500E-003  3.035102288284300E-003 
 3.110069314804900E-003  3.186888026880600E-003  3.265604161144500E-003  3.346264583924800E-003 
 3.428917319147800E-003  3.513611576930700E-003  3.600397782880900E-003  3.689327608118000E-003 
 3.780454000038600E-003  3.873831213839500E-003  3.969514844821300E-003  4.067561861488400E-003 
 4.168030639467200E-003  4.270980996262000E-003  4.376474226869700E-003  4.484573140273400E-003 
 4.595342096838100E-003  4.708847046630000E-003  4.825155568681800E-003  4.944336911228300E-003 
 5.066462032935600E-003  5.191603645149100E-003  5.319836255184300E-003  5.451236210687300E-003 
 5.585881745091300E-003  5.723853024195100E-003  5.865232193892700E-003  6.010103429081800E-003 
 6.158552983780200E-003  6.310669242479500E-003  6.466542772768800E-003  6.626266379256200E-003 
 6.789935158823800E-003  6.957646557246700E-003  7.129500427210700E-003  7.305599087762800E-003 
 7.486047385230600E-003  7.670952755645800E-003  7.860425288710201E-003  8.054577793341299E-003 
 8.253525864836899E-003  8.457387953698400E-003  8.666285436154700E-003  8.880342686427701E-003 
 9.099687150782500E-003  9.324449423406799E-003  9.554763324165000E-003  9.790765978271800E-003 
 1.003259789793500E-002  1.028040306601400E-002  1.053432902174500E-002  1.079452694858200E-002 
 1.106115176421200E-002  1.133436221278800E-002  1.161432095944400E-002  1.190119468714200E-002 
 1.219515419591400E-002  1.249637450455300E-002  1.280503495481600E-002  1.312131931820000E-002 
 1.344541590535900E-002  1.377751767822200E-002  1.411782236487400E-002  1.446653257728600E-002 
 1.482385593194500E-002  1.519000517346400E-002  1.556519830124900E-002  1.594965869929000E-002 
 1.634361526916200E-002  1.674730256631000E-002  1.716096093969800E-002  1.758483667490900E-002 
 1.801918214077900E-002  1.846425593965600E-002  1.892032306136600E-002  1.938765504098100E-002 
 1.986653012049400E-002  2.035723341447000E-002  2.086005707980700E-002  2.137530048967900E-002 
 2.190327041177400E-002  2.244428119094400E-002  2.299865493636100E-002  2.356672171328900E-002 
 2.414881973960700E-002  2.474529558717500E-002  2.535650438817900E-002  2.598281004656700E-002 
 2.662458545471700E-002  2.728221271544800E-002  2.795608336952000E-002  2.864659862874700E-002 
 2.935416961487700E-002  3.007921760436500E-002  3.082217427919200E-002  3.158348198388800E-002 
 3.236359398889000E-002  3.316297476041600E-002  3.398210023699800E-002  3.482145811285200E-002 
 3.568154812824000E-002  3.656288236700700E-002  3.746598556147200E-002  3.839139540484100E-002 
 3.933966287134000E-002  4.031135254426200E-002  4.130704295210600E-002  4.232732691302300E-002 
 4.337281188777400E-002  4.444412034140200E-002  4.554189011383500E-002  4.666677479964700E-002 
 4.781944413719800E-002  4.900058440738700E-002  5.021089884224900E-002  5.145110804365300E-002 
 5.272195041233100E-002  5.402418258751500E-002  5.535857989742700E-002  5.672593682089300E-002 
 5.812706746036900E-002  5.956280602664100E-002  6.103400733549900E-002  6.254154731668500E-002 
 6.408632353540800E-002  6.566925572673200E-002  6.729128634318200E-002  6.895338111585900E-002 
 7.065652962942100E-002  7.240174591126700E-002  7.419006903527600E-002  7.602256374044700E-002 
 7.790032106483601E-002  7.982445899513700E-002  8.179612313231700E-002  8.381648737368599E-002 
 8.588675461181600E-002  8.800815745072700E-002  9.018195893976000E-002  9.240945332557300E-002 
 9.469196682271400E-002  9.703085840323500E-002  9.942752060579500E-002  1.018833803647600E-001 
 1.043998998597700E-001  1.069785773863000E-001  1.096209482477500E-001  1.123285856694700E-001 
 1.151031017355000E-001  1.179461483483700E-001  1.208594182125700E-001  1.238446458424200E-001 
 1.269036085947300E-001  1.300381277270200E-001  1.332500694818800E-001  1.365413461980800E-001 
 1.399139174491700E-001  1.433697912101700E-001  1.469110250530600E-001  1.505397273718700E-001 
 1.542580586379500E-001  1.580682326863100E-001  1.619725180336600E-001  1.659732392291000E-001 
 1.700727782380500E-001  1.742735758605300E-001  1.785781331842900E-001  1.829890130739400E-001 
 1.875088416968700E-001  1.921403100867800E-001  1.968861757459200E-001  2.017492642868500E-001 
 2.067324711147300E-001  2.118387631512700E-001  2.170711806011000E-001  2.224328387619500E-001 
 2.279269298793700E-001  2.335567250473900E-001  2.393255761560600E-001  2.452369178871200E-001 
 2.512942697589300E-001  2.575012382219700E-001  2.638615188060600E-001  2.703788983205700E-001 
 2.770572571090800E-001  2.839005713596800E-001  2.909129154722600E-001  2.980984644844300E-001 
 3.054614965571900E-001  3.130063955221500E-001  3.207376534915500E-001  3.286598735327900E-001 
 3.367777724090500E-001  3.450961833875600E-001  3.536200591172300E-001  3.623544745774200E-001 
 3.713046300994900E-001  3.804758544629400E-001  3.898736080681800E-001  3.995034861874600E-001 
 4.093712222962900E-001  4.194826914870100E-001  4.298439139667400E-001  4.404610586417200E-001 
 4.513404467901700E-001  4.624885558258900E-001  4.739120231547900E-001  4.856176501267100E-001 
 4.976124060848400E-001  5.099034325151300E-001  5.224980472982600E-001  5.354037490665300E-001 
 5.486282216684700E-001  5.621793387436800E-001  5.760651684106500E-001  5.902939780703900E-001 
 6.048742393287300E-001  6.198146330401501E-001  6.351240544762400E-001  6.508116186218100E-001 
 6.668866656017600E-001  6.833587662421300E-001  7.002377277683099E-001  7.175335996441800E-001 
 7.352566795554000E-001  7.534175195404100E-001  7.720269322730600E-001  7.910959975002100E-001 
 8.106360686384601E-001  8.306587795338300E-001  8.511760513883200E-001  8.722000998576100E-001 
 8.937434423240900E-001  9.158189053494999E-001  9.384396323116300E-001  9.616190912297300E-001 
 9.853710827831000E-001  1.009709748527800E+000  1.034649579316500E+000  1.060205423925600E+000 
 1.086392497896600E+000  1.113226392594600E+000  1.140723084491700E+000  1.168898944678600E+000 
 1.197770748612200E+000  1.227355686102900E+000  1.257671371549700E+000  1.288735854426900E+000 
 1.320567630031300E+000  1.353185650493100E+000  1.386609336060200E+000  1.420858586660900E+000 
 1.455953793751400E+000  1.491915852457100E+000  1.528766174012800E+000  1.566526698510900E+000 
 1.605219907964100E+000  1.644868839690800E+000  1.685497100031200E+000  1.727128878402000E+000 
 1.769788961698500E+000  1.813502749052500E+000  1.858296266954100E+000  1.904196184747800E+000 
 1.951229830511100E+000  1.999425207324700E+000  2.048811009945600E+000  2.099416641891300E+000 
 2.151272232946000E+000  2.204408657099800E+000  2.258857550930100E+000  2.314651332438100E+000 
 2.371823220349300E+000  2.430407253892000E+000  2.490438313063100E+000  2.551952139395800E+000 
 2.614985357238800E+000  2.679575495562600E+000  2.745761010303000E+000  2.813581307257500E+000 
 2.883076765546800E+000  2.954288761655800E+000  3.027259694068700E+000  3.102033008512200E+000 
 3.178653223822400E+000  3.257165958450800E+000  3.337617957624600E+000  3.420057121177900E+000 
 3.504532532071000E+000  3.591094485613200E+000  3.679794519407800E+000  3.770685444037200E+000 
 3.863821374504900E+000  3.959257762455200E+000  4.057051429187800E+000  4.157260599488700E+000 
 4.259944936296100E+000  4.365165576222600E+000  4.472985165955300E+000  4.583467899554400E+000 
 4.696679556673400E+000  4.812687541723200E+000  4.931560924003800E+000  5.053370478826700E+000 
 5.178188729653700E+000  5.306089991276200E+000  5.437150414060700E+000  5.571448029288000E+000 
 5.709062795611400E+000  5.850076646663000E+000  5.994573539835600E+000  6.142639506269500E+000 
 6.294362702074400E+000  6.449833460815600E+000  6.609144347297800E+000  6.772390212676000E+000 
 6.939668250929100E+000  7.111078056727100E+000  7.286721684728200E+000  7.466703710341000E+000 
 7.651131291986400E+000  7.840114234898500E+000  8.033765056500499E+000  8.232199053396000E+000 
 8.435534370014899E+000  8.643892068954299E+000  8.857396203057499E+000  9.076173889273001E+000 
 9.300355384337999E+000  9.530074162331200E+000  9.765466994140700E+000  1.000667402889600E+001 
 1.025383887741000E+001  1.050710869768200E+001  1.076663428251500E+001  1.103257014929300E+001 
 1.130507463198000E+001  1.158430997539000E+001  1.187044243178200E+001  1.216364235984700E+001 
 1.246408432613500E+001  1.277194720899100E+001  1.308741430505300E+001  1.341067343838800E+001 
 1.374191707231600E+001  1.408134242400200E+001  1.442915158187500E+001  1.478555162594700E+001 
 1.515075475110800E+001  1.552497839346100E+001  1.590844535977900E+001  1.630138396016600E+001 
 1.670402814398200E+001  1.711661763913800E+001  1.753939809482500E+001  1.797262122776700E+001 
 1.841654497209300E+001  1.887143363290400E+001  1.933755804363600E+001  1.981519572731400E+001 
 2.030463106177900E+001  2.080615544900500E+001  2.132006748859500E+001  2.184667315556300E+001 
 2.238628598250600E+001  2.293922724627400E+001  2.350582615925700E+001  2.408642006539000E+001 
 2.468135464100500E+001  2.529098410063800E+001  2.591567140792400E+001  2.655578849170000E+001 
 2.721171646744500E+001  2.788384586419100E+001  2.857257685703600E+001  2.927831950540500E+001 
 3.000149399718800E+001  3.074253089891900E+001  3.150187141212200E+001  3.227996763600200E+001 
 3.307728283661100E+001  3.389429172267500E+001  3.473148072822500E+001  3.558934830221200E+001 
 3.646840520527700E+001  3.736917481384700E+001  3.829219343175000E+001  3.923801060951400E+001 
 4.020718947156900E+001  4.120030705151600E+001  4.221795463568900E+001  4.326073811519000E+001 
 4.432927834663600E+001  4.542421152179800E+001  4.654618954638600E+001  4.769588042818200E+001 
 4.887396867475800E+001  5.008115570102400E+001  5.131816024684000E+001  5.258571880493600E+001 
 5.388458605941800E+001  5.521553533508600E+001  5.657935905786300E+001  5.797686922659200E+001 
 5.940889789648900E+001  6.087629767453200E+001  6.237994222709300E+001  6.392072680010200E+001 
 6.549956875206500E+001  6.711740810024099E+001  6.877520808031700E+001  7.047395571990000E+001 
 7.221466242618200E+001  7.399836458810900E+001  7.582612419343501E+001  7.769902946101300E+001 
 7.961819548870000E+001
    </PP_R>
    <PP_RAB type="real" size="569" columns="4">
 1.859747471306032E-006  1.905683233847278E-006  1.952753609723315E-006  2.000986623883482E-006 
 2.050410993493415E-006  2.101056145032685E-006  2.152952231814987E-006  2.206130151940824E-006 
 2.260621566693771E-006  2.316458919391104E-006  2.373675454700061E-006  2.432305238431156E-006 
 2.492383177820461E-006  2.553945042312673E-006  2.617027484857802E-006  2.681668063733646E-006 
 2.747905264907799E-006  2.815778524951099E-006  2.885328254517392E-006  2.956595862404021E-006 
 3.029623780205465E-006  3.104455487576503E-006  3.181135538119506E-006  3.259709585911030E-006 
 3.340224412683040E-006  3.422727955676353E-006  3.507269336181683E-006  3.593898888785335E-006 
 3.682668191338378E-006  3.773630095664378E-006  3.866838759027208E-006  3.962349676375252E-006 
 4.060219713381780E-006  4.160507140302233E-006  4.263271666667685E-006  4.368574476834505E-006 
 4.476478266412170E-006  4.587047279592653E-006  4.700347347398456E-006  4.816445926879331E-006 
 4.935412141273269E-006  5.057316821162521E-006  5.182232546645387E-006  5.310233690547440E-006 
 5.441396462703906E-006  5.575798955332712E-006  5.713521189529452E-006  5.854645162910849E-006 
 5.999254898434779E-006  6.147436494426139E-006  6.299278175838570E-006  6.454870346781558E-006 
 6.614305644347071E-006  6.777678993762575E-006  6.945087664908495E-006  7.116631330231827E-006 
 7.292412124088383E-006  7.472534703553394E-006  7.657106310731270E-006  7.846236836606190E-006 
 8.040038886470410E-006  8.238627846966352E-006  8.442121954786210E-006  8.650642367069513E-006 
 8.864313233536282E-006  9.083261770404517E-006  9.307618336133561E-006  9.537516509035981E-006 
 9.773093166809257E-006  1.001448856802943E-005  1.026184643565974E-005  1.051531404262053E-005 
 1.077504229947315E-005  1.104118584427013E-005  1.131390313462375E-005  1.159335654204891E-005 
 1.187971244863749E-005  1.217314134611889E-005  1.247381793736803E-005  1.278192124042101E-005 
 1.309763469505925E-005  1.342114627202726E-005  1.375264858494636E-005  1.409233900499446E-005 
 1.444041977841800E-005  1.479709814694479E-005  1.516258647117438E-005  1.553710235701245E-005 
 1.592086878523059E-005  1.631411424422576E-005  1.671707286605826E-005  1.712998456584975E-005 
 1.755309518462624E-005  1.798665663568645E-005  1.843092705458793E-005  1.888617095283631E-005 
 1.935265937537147E-005  1.983067006194297E-005  2.032048761247303E-005  2.082240365650125E-005 
 2.133671702681667E-005  2.186373393737905E-005  2.240376816563238E-005  2.295714123932338E-005 
 2.352418262793465E-005  2.410522993884471E-005  2.470062911833321E-005  2.531073465755657E-005 
 2.593590980359765E-005  2.657652677574663E-005  2.723296698710759E-005  2.790562127169073E-005 
 2.859489011710188E-005  2.930118390299280E-005  3.002492314539681E-005  3.076653874708869E-005 
 3.152647225414218E-005  3.230517611881923E-005  3.310311396895449E-005  3.392076088398640E-005 
 3.475860367782016E-005  3.561714118866424E-005  3.649688457602336E-005  3.739835762505046E-005 
 3.832209705838950E-005  3.926865285573342E-005  4.023858858126816E-005  4.123248171922729E-005 
 4.225092401769125E-005  4.329452184092903E-005  4.436389653039940E-005  4.545968477469955E-005 
 4.658253898863439E-005  4.773312770165546E-005  4.891213595588405E-005  5.012026571399438E-005 
 5.135823627712997E-005  5.262678471317531E-005  5.392666629559275E-005  5.525865495309285E-005 
 5.662354373043361E-005  5.802214526057528E-005  5.945529224851313E-005  6.092383796705140E-005 
 6.242865676483572E-005  6.397064458692725E-005  6.555071950822555E-005  6.716982228007744E-005 
 6.882891689039577E-005  7.052899113758878E-005  7.227105721868763E-005  7.405615233198939E-005 
 7.588533929458899E-005  7.775970717516580E-005  7.968037194239115E-005  8.164847712936896E-005 
 8.366519451446578E-005  8.573172481897185E-005  8.784929842200073E-005  9.001917609302274E-005 
 9.224264974252248E-005  9.452104319116147E-005  9.685571295798230E-005  9.924804906804479E-005 
 1.016994758800264E-004  1.042114529342621E-004  1.067854758217391E-004  1.094230770745364E-004 
 1.121258270782762E-004  1.148953350071096E-004  1.177332497817862E-004  1.206412610513977E-004 
 1.236211001993663E-004  1.266745413742904E-004  1.298034025462358E-004  1.330095465891266E-004 
 1.362948823898786E-004  1.396613659849097E-004  1.431110017247365E-004  1.466458434673362E-004 
 1.502679958009814E-004  1.539796152972639E-004  1.577829117951077E-004  1.616801497164471E-004 
 1.656736494144427E-004  1.697657885549783E-004  1.739590035322864E-004  1.782557909195337E-004 
 1.826587089552477E-004  1.871703790664424E-004  1.917934874293823E-004  1.965307865688869E-004 
 2.013850969971402E-004  2.063593088929703E-004  2.114563838226254E-004  2.166793565030437E-004 
 2.220313366086698E-004  2.275155106229032E-004  2.331351437352902E-004  2.388935817855501E-004 
 2.447942532556503E-004  2.508406713110651E-004  2.570364358924594E-004  2.633852358590007E-004 
 2.698908511847186E-004  2.765571552089803E-004  2.833881169426455E-004  2.903878034311223E-004 
 2.975603821758610E-004  3.049101236156030E-004  3.124414036689216E-004  3.201587063395450E-004 
 3.280666263861186E-004  3.361698720578712E-004  3.444732678976985E-004  3.529817576147623E-004 
 3.617004070278477E-004  3.706344070814346E-004  3.797890769363568E-004  3.891698671366884E-004 
 3.987823628549533E-004  4.086322872174633E-004  4.187255047117381E-004  4.290680246781292E-004 
 4.396660048876729E-004  4.505257552083926E-004  4.616537413620519E-004  4.730565887736766E-004 
 4.847410865164052E-004  4.967141913533555E-004  5.089830318797733E-004  5.215549127672224E-004 
 5.344373191125711E-004  5.476379208946316E-004  5.611645775407458E-004  5.750253426059993E-004 
 5.892284685683616E-004  6.037824117419930E-004  6.186958373120393E-004  6.339776244936461E-004 
 6.496368718186342E-004  6.656829025525419E-004  6.821252702456004E-004  6.989737644206632E-004 
 7.162384164018524E-004  7.339295052869912E-004  7.520575640675600E-004  7.706333859000277E-004 
 7.896680305317576E-004  8.091728308859021E-004  8.291593998087772E-004  8.496396369840576E-004 
 8.706257360175775E-004  8.921301916971987E-004  9.141658074321178E-004  9.367457028757068E-004 
 9.598833217367227E-004  9.835924397836172E-004  1.007887173046290E-003  1.032781986220533E-003 
 1.058291701280164E-003  1.084431506301784E-003  1.111216964507447E-003  1.138664023530788E-003 
 1.166789024911991E-003  1.195608713827322E-003  1.225140249058846E-003  1.255401213210611E-003 
 1.286409623176907E-003  1.318183940869363E-003  1.350743084208845E-003  1.384106438388793E-003 
 1.418293867416995E-003  1.453325725942216E-003  1.489222871372988E-003  1.526006676295881E-003 
 1.563699041200410E-003  1.602322407518046E-003  1.641899770983735E-003  1.682454695327043E-003 
 1.724011326301628E-003  1.766594406061261E-003  1.810229287890992E-003  1.854941951301892E-003 
 1.900759017499047E-003  1.947707765231263E-003  1.995816147032478E-003  2.045112805864199E-003 
 2.095627092169043E-003  2.147389081345598E-003  2.200429591654835E-003  2.254780202568732E-003 
 2.310473273572164E-003  2.367541963429396E-003  2.426020249926104E-003  2.485942950099324E-003 
 2.547345740966788E-003  2.610265180768514E-003  2.674738730733700E-003  2.740804777382837E-003 
 2.808502655384049E-003  2.877872670972112E-003  2.948956125945007E-003  3.021795342255837E-003 
 3.096433687209610E-003  3.172915599283693E-003  3.251286614586063E-003  3.331593393966280E-003 
 3.413883750797184E-003  3.498206679442008E-003  3.584612384424197E-003  3.673152310319460E-003 
 3.763879172384224E-003  3.856846987942179E-003  3.952111108544306E-003  4.049728252925560E-003 
 4.149756540772607E-003  4.252255527329695E-003  4.357286238854858E-003  4.464911208954525E-003 
 4.575194515815791E-003  4.688201820356376E-003  4.804000405319094E-003  4.922659215330616E-003 
 5.044248897949155E-003  5.168841845728651E-003  5.296512239317992E-003  5.427336091629216E-003 
 5.561391293092454E-003  5.698757658031827E-003  5.839516972185200E-003  5.983753041398304E-003 
 6.131551741520796E-003  6.283001069536225E-003  6.438191195953949E-003  6.597214518494018E-003 
 6.760165717100624E-003  6.927141810313149E-003  7.098242213027783E-003  7.273568795689696E-003 
 7.453225944943099E-003  7.637320625783130E-003  7.825962445240043E-003  8.019263717637443E-003 
 8.217339531463089E-003  8.420307817890384E-003  8.628289420992211E-003  8.841408169690581E-003 
 9.059790951482127E-003  9.283567787983556E-003  9.512871912346881E-003  9.747839848581751E-003 
 9.988611492841713E-003  1.023533019671494E-002  1.048814285257382E-002  1.074719998103243E-002 
 1.101265582056392E-002  1.128466841933192E-002  1.156339972928943E-002  1.184901570260280E-002 
 1.214168639045709E-002  1.244158604430125E-002  1.274889321959564E-002  1.306379088211973E-002 
 1.338646651690801E-002  1.371711223987560E-002  1.405592491220056E-002  1.440310625753184E-002 
 1.475886298209291E-002  1.512340689775061E-002  1.549695504812501E-002  1.587972983781387E-002 
 1.627195916480766E-002  1.667387655617857E-002  1.708572130711616E-002  1.750773862340175E-002 
 1.794017976739999E-002  1.838330220765456E-002  1.883736977218368E-002  1.930265280555675E-002 
 1.977942832985388E-002  2.026798020960126E-002  2.076859932077852E-002  2.128158372400172E-002 
 2.180723884198449E-002  2.234587764138162E-002  2.289782081912368E-002  2.346339699335611E-002 
 2.404294289909190E-002  2.463680358869843E-002  2.524533263734082E-002  2.586889235348272E-002 
 2.650785399461466E-002  2.716259798828052E-002  2.783351415859137E-002  2.852100195830748E-002 
 2.922547070667862E-002  2.994733983313306E-002  3.068703912701287E-002  3.144500899344820E-002 
 3.222170071558772E-002  3.301757672326339E-002  3.383311086832606E-002  3.466878870677403E-002 
 3.552510778783076E-002  3.640257795019116E-002  3.730172162556112E-002  3.822307414971209E-002 
 3.916718408120951E-002  4.013461352801505E-002  4.112593848215793E-002  4.214174916266795E-002 
 4.318265036698513E-002  4.424926183105082E-002  4.534221859827785E-002  4.646217139765369E-002 
 4.760978703117646E-002  4.878574877084593E-002  4.999075676548533E-002  5.122552845759388E-002 
 5.249079901049608E-002  5.378732174605616E-002  5.511586859318216E-002  5.647723054743441E-002 
 5.787221814195553E-002  5.930166193006359E-002  6.076641297973537E-002  6.226734338033584E-002 
 6.380534676182828E-002  6.538133882684548E-002  6.699625789586866E-002  6.865106546589700E-002 
 7.034674678290563E-002  7.208431142844324E-002  7.386479392072584E-002  7.568925433056783E-002 
 7.755877891253161E-002  7.947448075167082E-002  8.143750042623868E-002  8.344900668676611E-002 
 8.551019715192937E-002  8.762229902158315E-002  8.978656980741513E-002  9.200429808165896E-002 
 9.427680424427548E-002  9.660544130910978E-002  9.899159570944374E-002  1.014366881234661E-001 
 1.039421743201164E-001  1.065095460258229E-001  1.091403318126608E-001  1.118360980084336E-001 
 1.145984496292421E-001  1.174290313350835E-001  1.203295284090610E-001  1.233016677607650E-001 
 1.263472189544554E-001  1.294679952626317E-001  1.326658547456182E-001  1.359427013578350E-001 
 1.393004860813732E-001  1.427412080875831E-001  1.462669159273469E-001  1.498797087507515E-001 
 1.535817375568961E-001  1.573752064745505E-001  1.612623740744732E-001  1.652455547141113E-001 
 1.693271199155500E-001  1.735094997774653E-001  1.777951844219673E-001  1.821867254771902E-001 
 1.866867375964762E-001  1.912979000151100E-001  1.960229581454834E-001  2.008647252116754E-001 
 2.058260839244042E-001  2.109099881973377E-001  2.161194649058127E-001  2.214576156889858E-001 
 2.269276187965027E-001  2.325327309807776E-001  2.382762894360008E-001  2.441617137850706E-001 
 2.501925081155684E-001  2.563722630660223E-001  2.627046579637592E-001  2.691934630154612E-001 
 2.758425415519299E-001  2.826558523282649E-001  2.896374518807698E-001  2.967914969422245E-001 
 3.041222469166920E-001  3.116340664155456E-001  3.193314278560078E-001  3.272189141240558E-001 
 3.353012213029155E-001  3.435831614690925E-001  3.520696655573828E-001  3.607657862966425E-001 
 3.696767012181722E-001  3.788077157382765E-001  3.881642663170001E-001  3.977519236950411E-001 
 4.075763962103062E-001  4.176435331966921E-001  4.279593284666575E-001  4.385299238797796E-001 
 4.493616129996140E-001  4.604608448407119E-001  4.718342277082597E-001  4.834885331326583E-001 
 4.954306999010433E-001  5.076678381886006E-001  5.202072337918486E-001  5.330563524665001E-001 
 5.462228443724371E-001  5.597145486284388E-001  5.735394979795621E-001  5.877059235796415E-001 
 6.022222598920554E-001  6.170971497113934E-001  6.323394493092707E-001  6.479582337072164E-001 
 6.639628020797850E-001  6.803626832911582E-001  6.971676415684372E-001  7.143876823151828E-001 
 7.320330580683555E-001  7.501142746026550E-001  7.686420971853333E-001  7.876275569858253E-001 
 8.070819576433691E-001  8.270168819971533E-001  8.474441989824812E-001  8.683760706973447E-001 
 8.898249596435779E-001  9.118036361467660E-001  9.343251859596149E-001  9.574030180528119E-001 
 9.810508725987166E-001  1.005282829151886E+000  1.030113315031951E+000  1.055557113913228E+000 
 1.081629374626905E+000  1.108345620180191E+000  1.135721756998632E+000  1.163774084396505E+000 
 1.192519304281096E+000  1.221974531096826E+000  1.252157302014935E+000  1.283085587374681E+000 
 1.314777801382838E+000  1.347252813077003E+000  1.380529957560014E+000  1.414629047511741E+000 
 1.449570384985285E+000  1.485374773494415E+000  1.522063530399729E+000  1.559658499600597E+000 
 1.598182064540744E+000  1.637657161534900E+000  1.678107293424813E+000  1.719556543572386E+000 
 1.762029590198635E+000  1.805551721076549E+000  1.850148848587132E+000  1.895847525147238E+000 
 1.942674959018375E+000
    </PP_RAB>
  </PP_MESH>
  <PP_NLCC type="real" size="569" columns="4">